TITLE="BGK Re = 100.0"
VARIABLES = X,Y,Rho,U,V
ZONE
I = 201	J = 101
F=POINT
1,1,-1.4950151102020305e202,0.325958283801145,-1.7462888506034042
2,1,1.6562158572559467e202,0.9624365736798111,-1.517037231169384
3,1,-4.8159770055158036e201,1.2038442469504078,-0.5758060007787141
4,1,2.5789319327655387e201,0.49725103221512745,-0.6353117579788696
5,1,-1.9379500194655292e199,0.88116267905775,9.34394446072997
6,1,-5.0200168259700984e199,-2.399553794295968,-0.5450257283808652
7,1,5.3790098027114544e200,-1.0552641933467517,-0.07235988765659511
8,1,5.6253522948534326e200,0.07741771142106194,-3.853232309308493
9,1,5.479398024453482e200,1.037854959871749,-0.07836757177918376
10,1,-8.865519180578571e199,0.8197341691153633,-0.2409604259530875
11,1,-1.59471219954804e199,-0.6316374255562068,-3.604487477091415
12,1,-1.3005806096406537e199,0.5307854776428571,-0.09850001782148086
13,1,-5.169150288035072e198,0.47015302467284437,-3.731645868064949
14,1,-5.515987931723967e198,0.7252766235111808,-0.17657749673871695
15,1,1.1253367677884109e198,1.28201106269373,-0.35466598851457154
16,1,-1.435540368469437e198,0.5880387497064895,-2.262149214153918
17,1,-5.432056520051514e198,-0.8754044587275727,-0.2198759767840346
18,1,3.0190546576972575e199,-1.0421365475995465,-0.024164727274137685
19,1,3.7240317884268647e199,0.41766215541044394,-3.296779253611137
20,1,2.078213187337365e199,1.3744213262379479,-0.5601792786136796
21,1,5.2361803884993414e199,-0.6141996021104663,-0.26078323341865
22,1,-2.1179548305952493e200,-0.9600321101445972,-0.2729061864379959
23,1,-8.49538482902109e200,-0.9851334032458728,-0.02035186281980927
24,1,-1.224938210368312e201,-0.08939599544378402,-3.466539611805386
25,1,-2.6966857400508682e200,2.913787214630502,1.5262567548190376
26,1,1.9294133712190468e200,-0.5770370390116547,-0.16800707219279973
27,1,-2.5907509644535148e200,1.6036015300273578,-1.1280604046812028
28,1,-1.7110677764715225e201,-1.1714474752747503,-1.2893077106299216
29,1,-6.998978033857728e200,-5.152890280681235,-0.7176452370730612
30,1,2.0533804325842715e201,-1.6077124454704392,0.3028896829786414
31,1,1.5501599111327594e202,1.1517252759380368,-1.1178240794458203
32,1,3.6527176291174505e201,-0.4527630103782525,0.1224920107031476
33,1,2.423996185825472e201,0.5322960463557432,-7.670842513440731
34,1,5.548028709778272e201,1.0083760235100407,-0.1653665850326801
35,1,-1.2207765469828693e201,0.810904596448756,-0.17887246940520465
36,1,-1.4161464235895216e201,0.1381740346325923,-1.5562224008207333
37,1,-1.0223091717932683e201,1.005361732217276,-0.82076918639444
38,1,1.9996100081665915e199,0.8493466017578608,-0.22820787772093093
39,1,1.864257784187926e198,0.2504462977597522,-3.869088543078316
40,1,6.462399219059749e197,1.0207633062030068,0.04375331213700439
41,1,-7.082007257319774e195,-2.604595430439261,-1.7374398077986943
42,1,-4.800611925597681e196,0.4701254985981958,-0.4895581554002728
43,1,-9.52378467532682e195,-0.2630116818001876,-0.7670803575699302
44,1,-7.875557232416882e195,-1.096288607128306,-0.24852414647366808
45,1,-1.5149711289425373e196,0.4371242233443593,-2.5619900326319125
46,1,-7.70065855848099e195,1.0614671376360498,-0.10958889308618838
47,1,1.4289474374658505e195,0.8213811041356395,-0.04349170972237887
48,1,-2.4157034364910433e195,-0.8348484212157534,-0.21295354040440762
49,1,9.292319387194807e194,-0.7067206164775287,-2.176363765700564
50,1,1.1814759046283767e195,0.12466401046465966,-0.41831847859205845
51,1,-9.898905281112959e194,-2.3059588830324613,0.02948337661143709
52,1,-2.1090006982373143e195,0.3223649087557045,-3.413239219620738
53,1,-1.7592327804293717e195,1.042909788170645,-0.07572665415598327
54,1,2.9747196349687526e194,0.6402377679201516,-0.1837902210846865
55,1,7.698355041292967e193,0.2460713533853047,-3.8702506338518408
56,1,6.810865285991694e193,1.0528386833559145,-0.05127413578614169
57,1,-1.1151390640368213e193,0.6397201864232855,-0.21459924639867423
58,1,-2.777096400615525e192,0.2223259094034678,-4.004550770251417
59,1,-2.61382947278641e192,1.0464827287931766,-0.03711332920959234
60,1,6.053879195410063e191,0.2802960402334359,-0.2778557181062144
61,1,-1.5171356513028607e192,-1.0556698335364059,-0.0646085310651237
62,1,-1.4760909979683755e192,0.16061677459225934,-3.9932822602238076
63,1,-1.388385055788957e192,1.0512648432027205,-0.08595957785200063
64,1,2.370127151069155e191,0.9525995679602711,-0.3153767941094611
65,1,1.4617263731380568e190,-0.1934779298343324,-2.0701619421366417
66,1,9.872829672012783e189,-0.7528534774873571,-2.5323608739807884
67,1,4.3007539402995677e189,1.0116022846326247,0.4560527878728544
68,1,4.175662625961018e188,0.8477425449806583,-1.7865114178322068
69,1,-2.3021188188238475e188,0.9285899361489554,-0.6497110236903992
70,1,8.916723194008935e187,0.33260653945119767,-0.46299221551757275
71,1,4.626909846233738e188,-1.1451746709497552,-0.2603126574015895
72,1,2.849886889715285e188,-1.1897886679583314,-5.823233947898146
73,1,5.0849928157394056e188,1.0170435054119624,-0.06101451763716726
74,1,-7.019458255002393e187,0.9945863941663721,-0.2437395743612613
75,1,1.8577217597485905e186,0.39246293400336557,3.701503580006574
76,1,-2.0864111815606185e186,-0.4836190054141003,-0.6273766997409913
77,1,-1.0350899519780815e186,0.031009401874860933,-1.9240209539038198
78,1,-7.762185652060044e185,0.9106561175736095,0.4628193819751634
79,1,-5.4306921498687603e185,0.24203760837223634,-1.394910727108148
80,1,-2.7168784552247324e185,1.0388083675795154,-0.3398313597628179
81,1,7.126131445200548e183,0.25388704715064303,-3.8110710613530565
82,1,3.7183804886669993e183,1.286945631232351,0.08013295477021906
83,1,5.154541374543918e182,-2.439438033028557,-0.7740982276055199
84,1,-8.931063531660449e182,0.5385093058214765,-0.39582201701950886
85,1,9.520864893680971e182,-1.2493530326829352,-0.07376668817310374
86,1,-3.9398551085465577e183,-1.0434044369462971,-0.17489402390637093
87,1,-4.696079775947045e183,-0.20237736298806294,-3.8131007214900037
88,1,9.572612995851091e182,-8.956347546080414,-5.1748868894424715
89,1,-3.253892095512577e183,1.4757983380981592,-2.7803616668324462
90,1,-2.1738756234517235e184,1.3664263476791905,-0.24582950897827097
91,1,5.648072263911896e183,1.0579787861464276,-0.0780287973138855
92,1,-9.666907936495505e182,0.7521831990828447,-0.1670179804080407
93,1,-2.46095269255549e182,0.43565200892492134,-3.1418663591381093
94,1,-6.2887803190149976e181,2.063208767346398,-0.6705435142955342
95,1,1.8948382080083816e181,2.0207617326844884,-6.090502653696867
96,1,-7.14516992390181e181,1.2233436162251885,-0.27419758185678494
97,1,3.4199668078607664e181,0.1685628621058127,-0.02229030713321787
98,1,5.873884040389112e181,-1.1393301111676293,-0.7092451463794838
99,1,-2.2674249663690785e181,-1.910757978865537,-0.46795056186837897
100,1,3.84612492108297e183,-1.022759665657987,-0.22482170795475498
101,1,-4.720841197315279e183,-1.1413278716132522,-0.47447420230245585
102,1,-4.97372018875982e185,-1.0025377088416696,-0.29919842384699974
103,1,-5.713581515721988e186,-0.9575464649922194,-0.24544600454443805
104,1,-3.882928712576371e186,6.7388362032572315,-5.870229740965077
105,1,-2.8639650120782143e188,-1.0251900939287428,-0.10382015836986985
106,1,-3.670876428544435e188,0.14657431906665538,-4.031433048676517
107,1,-2.3493345034079033e189,-0.7923800304420657,-0.22671901747047843
108,1,1.4198791995505448e190,-1.0463524177590513,-0.07767917026164645
109,1,1.4061335040274481e190,0.1916967424219946,-3.908055821505155
110,1,7.205740051003162e189,2.77870319548777,-0.12503606654324598
111,1,1.2079165512010817e190,-0.36351869279339666,0.06958620615447486
112,1,-1.3668512447184783e189,3.8772787120659613,12.663769650657732
113,1,3.483508691954092e190,-0.8288028305189886,-0.22635703056960313
114,1,-2.1881574700508007e191,-1.035890422576004,-0.0753386514869869
115,1,-2.193960265684928e191,0.18738872389186503,-3.8278762743366586
116,1,-1.4361206668043462e191,1.8887035858281087,-0.10667893047859188
117,1,-1.563650844913449e191,-1.090727644856358,-0.2956936898270512
118,1,-2.0083033803909692e191,-0.5804896391476164,-3.5231464979935274
119,1,-3.486251991877866e191,-0.4973458801140864,-0.21091275728080036
120,1,2.0152065626884216e192,-1.0956040410395456,-0.08538857746318901
121,1,2.2512324519178048e192,0.27029389249904534,-3.5514065761697675
122,1,1.4055804374826597e192,1.354410133299821,-0.06199566968865407
123,1,-9.216261864899832e191,-0.8577056404429164,0.12448565191812763
124,1,3.1835681159127065e192,-0.24334900026906867,0.07278537935337757
125,1,-9.448038957259774e192,-0.014923070276800003,-0.952351104280853
126,1,1.3551217881200832e193,-0.7442589331021383,-0.7739197667586236
127,1,5.78475224940572e192,0.16340992272580968,-0.6296120453626947
128,1,-4.884057077838564e193,-0.5294209244005715,0.10012342697540876
129,1,-1.3365794485745266e196,-1.0028872668899151,-0.16638471548187828
130,1,-4.1887398913940714e195,-0.1046034019876275,1.6082312027590508
131,1,-1.0941281617872047e196,-0.14678531136419642,-4.594594662227122
132,1,-4.719534109105676e196,-0.5119184051676263,-0.37209746822235107
133,1,4.500039543843585e196,-0.8232469326165612,-0.5034994613795425
134,1,4.202376823142815e196,-1.3820212199429645,-3.091470442778777
135,1,6.318572676702289e194,61.6997531513077,33.166332037862745
136,1,-3.938102955432243e196,-1.2009941386975516,-1.8973135135065142
137,1,-3.2789370968364676e197,-0.9595064955281128,-0.17002208955826886
138,1,2.1591540337833276e198,-1.0296851355259586,-0.03460874941645889
139,1,2.2669165036542267e198,0.2949458399823322,-4.03378607768778
140,1,1.142389130931975e199,-0.7260340341906195,-0.23706187470224963
141,1,-6.863958713639638e199,-1.0428502946033082,-0.04685877526883459
142,1,-7.744429864056008e199,-0.2542476408495267,-3.8689697059197012
143,1,-2.9437192302414517e200,-0.6358175596673069,-0.19626100222842222
144,1,1.6468005944030147e201,-1.0601725809162565,-0.07799617565640413
145,1,8.153955178536261e200,0.7980127754323395,-7.999941852898166
146,1,3.0059934672797857e201,0.6942007961043962,-0.059939427943766325
147,1,-5.116257971051784e200,4.617472236293127,-1.9368511055107762
148,1,8.788489846714547e199,-5.504350354691092,-14.788299309834265
149,1,-1.5103898737159903e202,-1.2781907008431985,-0.16888036169012255
150,1,-2.4180636541311964e203,-0.8120570952216982,-0.2744466271733703
151,1,-2.315540712429101e203,-0.18739094157973535,-2.7933720387571706
152,1,-2.5623025840626273e203,0.6844188690745027,-0.013623131142379546
153,1,-3.4121181630296995e202,-0.04104836254820245,-4.50428035531818
154,1,-3.7494401148563596e202,1.1147419016629743,-0.16294223085260587
155,1,-1.504967178200772e202,-1.2740775789059662,-1.0307695095951863
156,1,-3.5107423309221176e202,-0.9170914451794064,-0.6133624958562665
157,1,1.3441600413972257e202,6.381291713978086,-7.56688298788136
158,1,-2.5385247895566667e203,0.19128905673606122,-2.6960683233932223
159,1,-1.4247301660620602e205,-0.9896785425415203,-0.43159796047740495
160,1,8.298195413283171e205,-1.111064306598507,-0.9668756813248515
161,1,-1.5068520237101349e206,1.266372819291959,1.0845001151889664
162,1,6.2977831105624825e205,2.0104267653416477,1.6541176759266507
163,1,1.3928721520603442e206,1.2920835718449517,-0.6401642258879332
164,1,-8.85628247241317e205,1.621019005625867,0.14146783372891095
165,1,-1.7993121193564404e206,-1.0471989955020455,-0.07942898109610863
166,1,-1.830165832622863e206,0.2248269375288089,-3.8384109299377545
167,1,-1.7257832175870896e206,0.9758778810687578,-0.07531495622261458
168,1,3.990713351396235e205,0.528234145818894,-0.05728396816329941
169,1,4.181430780552275e205,-1.4809835818895154,-0.7589831978549867
170,1,5.273838458290815e205,-1.124959526502908,0.20464293244346632
171,1,4.9194325734888985e205,-4.04536575280339,-10.197478139165774
172,1,1.93570774181638e206,1.0367389916409597,-4.3150344387475466
173,1,5.265694259318549e206,-1.5865800057737534,-0.27802842206031697
174,1,-4.8716146817193747e207,-1.0490612392145975,-0.0767098111564361
175,1,-4.84747108503325e207,0.0001983328121512523,-3.9592432519609266
176,1,-4.861017997533809e207,1.0504690436781994,-0.07701167534946526
177,1,8.190466331698311e206,0.6598784401952397,-0.197882248358462
178,1,2.003984600708893e206,0.24204664391208539,-3.8701746777538677
179,1,1.7564518301185595e206,1.0631160914939288,-0.06048987927915357
180,1,1.0260087200625293e205,-4.795151223234544,-3.0810511247054495
181,1,-4.5612205306113234e204,0.569250700271392,1.8477718007838326
182,1,-5.458557624152104e204,0.6252150022848966,0.10931085483607025
183,1,2.7454251854163705e204,0.7559052443556772,-0.08032826880814929
184,1,3.612934623033692e204,-2.2906530698123286,-0.29983390400732884
185,1,9.92957408661009e204,-0.06938083383173996,-2.137532841491484
186,1,-4.173805172479083e203,-14.327584017809835,-15.393751643554356
187,1,-2.7706466034939885e205,-1.2708660481850702,-0.4875399148006236
188,1,2.2125571490730364e206,-1.0583044787951599,-0.08985004791084077
189,1,2.0169256648964302e206,0.3533244161018801,-4.151655464251288
190,1,9.088562063707212e206,-0.7336969460634357,-0.0649974312931543
191,1,9.756635709238188e206,0.3463937706752555,-3.7739683333656693
192,1,4.806836310933121e207,-0.7213717285214121,-0.25233237008459264
193,1,-2.9534898218675765e208,-1.0475653577012443,-0.04933535952429928
194,1,-3.3751494977185256e208,-0.23775897118184341,-3.8573654193833833
195,1,-1.3681271788544424e209,-0.6598880550299037,-0.19884480261629456
196,1,8.139122937627414e209,-1.051250046118871,-0.0769255684803459
197,1,8.128941954491602e209,0.0025078003266157446,-3.9538135799888114
198,1,8.13326531466164e209,1.0523256504862653,-0.07671608625948824
199,1,-1.3651523068782801e209,0.6420767723625305,-0.18373669006087534
200,1,-3.6463158483914295e208,0.6060096159094278,-3.8822609160079464
201,1,-2.7184284790524287e208,1.5748104241543457,0.13795784159288693
1,2,-1.7030142862463737e202,-3.9568843029502045,0.924129942045558
2,2,3.3320435782110146e202,0.9581360616666931,-0.08164777292882122
3,2,-3.797277357547226e201,0.3747707159040292,-0.22347100735321843
4,2,-4.943471413861949e200,4.446418327447072,3.7071490507125926
5,2,9.366572480167243e201,-0.06326125896915367,-1.0787126019870212
6,2,2.903374000857334e201,0.9691510659639371,-0.9824012220516921
7,2,-3.609973241960298e200,-0.888871874593431,0.7496794122747218
8,2,-1.237765561901191e201,-0.0018444903231298946,0.9145903783625501
9,2,-3.187878515313433e200,0.8807363193015719,0.7404351223729072
10,2,4.0613196056385375e199,0.6669790354920079,-0.9946653584656326
11,2,3.5977142574043575e199,0.27533455984131633,0.7404899352939279
12,2,2.6908052901165764e199,-0.14714715872738549,0.14310709112716305
13,2,2.0040492494725363e199,-0.04808625050815548,0.03648502201814077
14,2,-1.710898688227621e198,-0.8251269975258254,-1.7520526648006214
15,2,3.045079168687355e198,-0.1885302163524896,0.3915921748241872
16,2,2.4659090663888263e197,-5.726136511624725,5.317913171850151
17,2,5.712250094559635e198,-0.8453843144620758,-0.5007560375970331
18,2,-2.880384145010268e199,-0.8230686390337569,0.8424571749374069
19,2,-6.958452152507672e199,-0.08188491608975501,0.9159045482723813
20,2,2.4238412343598604e198,-5.712356315843042,-5.252891015529929
21,2,-5.458277253760252e199,-0.6295695870498683,0.33888294337108166
22,2,-3.967748657886412e199,-2.2248069575065346,3.8914992845337513
23,2,3.5904501827522185e200,-0.5980402023850593,0.9944615931708609
24,2,2.4364254967924284e201,-0.008263300398927071,1.004764247570579
25,2,-2.148556824228208e200,-4.526103976718413,1.2697956078528512
26,2,-5.155958169734585e200,0.44368159019458236,0.08019147450604205
27,2,2.9490797710020886e201,-0.7516761421310201,-0.2787517336357893
28,2,-7.15657703790034e201,-0.38286247746628915,0.04189675292366638
29,2,1.7620893621280065e202,-0.7795154591263659,0.03750337470862426
30,2,-4.457788238847369e202,0.08683621293142801,0.19865790258877444
31,2,8.307085204925194e201,2.0329281301317885,-0.5599022118347793
32,2,3.6385834730970955e201,1.2218575562515028,-0.44287582086300364
33,2,-1.1329337624269156e202,-0.013164951393140525,0.4292574898070743
34,2,-4.265566669612213e201,0.7721267941438327,0.5113805787561008
35,2,2.1094371396251323e201,0.6092402172595689,-0.23163206789264099
36,2,3.347996966267194e201,-0.019017100753435,0.1659836828812914
37,2,5.5471898931153226e200,1.040561764838945,0.04147841063889901
38,2,-1.1947451732242762e199,3.25971104235146,-0.7339710777107962
39,2,-2.3264206388459366e199,0.8876553114882921,-0.6843289380853723
40,2,1.6537799152772683e197,0.9348355102313491,-1.5331556271355793
41,2,9.64907940060191e196,-0.0017561791709002367,-0.20299707322813165
42,2,3.771752434256017e196,0.9435080966616903,-0.6223859074301884
43,2,3.963340142316687e196,0.18209117749039594,-0.09962711364888605
44,2,1.912138497693974e196,-0.037526222070111526,0.7761038625590864
45,2,1.6421638181055777e196,-0.1706929609902417,1.1459324333938146
46,2,4.890424829299414e195,0.9570826017208769,0.7485584635736485
47,2,-3.5928178224695314e194,0.3296286757865582,-3.23410345700894
48,2,-7.228198077432043e194,-0.9621583218890188,-0.16461337199064474
49,2,1.9192209449276266e195,-0.5663375967252404,0.09543242272479734
50,2,-2.2751454372430732e195,-0.01965958150366611,-0.03629229890564755
51,2,2.1819948252073762e195,-0.02419633429639859,0.36156206605212915
52,2,3.6308615007475184e195,-0.08504464264185381,0.9872867478043825
53,2,7.89953661107882e194,0.9556043837054276,0.822873839219357
54,2,-1.2258829205956357e194,0.21736876249311224,-0.4835058265738654
55,2,-1.974287517296643e194,0.20232963949674557,0.7900457408016796
56,2,-3.439036019733319e193,0.8552706401584139,0.7709596889947131
57,2,4.188289941940685e192,0.09087783984350468,-0.8892151550760471
58,2,7.591007429870694e192,0.1955707203597873,0.7490859150283901
59,2,1.5281856108064384e192,0.7570811649424606,0.49836580355620674
60,2,-3.7283766000023066e191,-0.11825293118195863,-1.2143190442678622
61,2,1.0467522916526666e192,-0.9581119501707488,0.7989936254512108
62,2,3.302501769063027e192,0.0013584624300826537,0.9116933824063869
63,2,7.40421371484591e191,0.8648479261388792,0.7733691212097007
64,2,-1.4614931846404098e191,0.4829023238865682,-0.8255745811415892
65,2,-3.1136386330001955e190,0.8319313321729604,0.0006186583713217183
66,2,-7.91867828325052e189,-0.6689254920913695,1.162606511868468
67,2,-1.0762738447555134e190,0.7815896549269926,0.504848575559085
68,2,-8.662755693896567e189,1.0010600913351062,-0.9744950648987648
69,2,-5.022066793277378e188,0.5084051624350705,-0.1376929111222615
70,2,1.3073202478071796e188,4.895594481187416,-1.03249284042913
71,2,6.248419099735136e188,0.39031249880050306,-0.3456590849577054
72,2,-1.4201782861720276e189,0.21652693561594435,0.7413825363644034
73,2,-3.692006262795566e188,0.8402495238981448,0.7365892362038517
74,2,3.294342657933938e187,0.937707324493306,-1.1256376608622112
75,2,7.443299233871002e186,0.3795591384945447,0.13187994023187283
76,2,-5.695799472151652e186,0.6416052887620616,0.024490258185803665
77,2,3.626217368404425e186,0.5605026766699652,0.5470426341689367
78,2,9.51410080917051e185,0.24036850318033556,0.33523387862452625
79,2,2.674330657658247e185,-1.5852322973929847,0.6857628223435076
80,2,3.785605787873122e185,1.0308829414836447,0.11338955098897613
81,2,-1.6863682528958935e184,0.350892120145472,0.6294853859857896
82,2,-4.1513914978632122e183,-0.2606383661495814,0.3399644488587409
83,2,6.718890870440319e183,0.030466148908822176,-0.0177318516581491
84,2,-3.7601995351480013e183,0.9305579495572132,0.09445076007640209
85,2,-2.9893970367765378e181,-12.26542546051177,-21.07649304268192
86,2,3.114689704685378e183,-0.6713086802691485,0.48156857361254457
87,2,9.578691448204001e183,0.024349654484243963,0.871117654661525
88,2,-8.197189724199892e183,-1.8571019647909104,-0.24623898023713053
89,2,8.51604426271833e184,0.021516310913237156,-0.012376381168538035
90,2,-2.6281154039772455e184,0.48147113008197323,0.38939539497773057
91,2,-5.411081344533005e183,0.8285733230344641,0.5967218069833164
92,2,4.3170432324885037e182,0.9509132640404208,-0.3706881975101049
93,2,4.354141220440786e182,0.08204229803605506,1.2526236934379298
94,2,-6.096228449223452e181,-1.93171648302754,0.6196994970098206
95,2,1.691615424241595e181,1.0423626173388563,0.3342771825140101
96,2,-3.263506351196731e181,-0.8862973584398224,-0.1034153992480062
97,2,1.9930858849940437e181,-0.9940716313114115,1.1931803380379047
98,2,1.0193064866646775e182,-0.9887134503588073,0.06352913660363876
99,2,-3.88492797750709e182,-0.7544302558944842,-0.5263682979526793
100,2,6.572267572432827e183,-0.9838607206011476,-0.0564385150842749
101,2,-4.932722523131604e183,-0.19610009403583223,-0.01898998978133326
102,2,7.145721695095516e185,-0.9960232891062268,0.7108755429381776
103,2,7.779655246984253e186,-0.8996296113715193,0.15828564842622903
104,2,5.203849620061735e187,0.3495656143777475,0.22647863654679876
105,2,2.248910429122394e188,-0.6911261344421832,0.7589610537202046
106,2,9.376678012475454e188,-0.26723610431705763,0.7642743062307926
107,2,1.5334507342544413e189,-0.7037240057849364,-0.6551288915571506
108,2,-1.033531712249549e190,-0.8604221314518383,0.7448625515663365
109,2,-3.1258230465974162e190,0.003789277666218413,0.9141054675222636
110,2,-8.245478077391252e189,0.5730737549947611,0.8761012803073899
111,2,2.7769570067383666e189,0.7092951176311599,-0.06798754671720729
112,2,-1.3026783229532939e190,-0.25905042634973424,0.7282895823458558
113,2,-2.1974493442942123e190,-0.725257584464025,-0.7002918649188421
114,2,1.5895374782563852e191,-0.86227517132405,0.7499572250757686
115,2,4.7895722489345427e191,0.0032537185300189745,0.915531523600995
116,2,1.3177403114026686e191,0.536599448410145,0.7593111398510144
117,2,8.581767153834519e190,-0.5341643876057747,0.4476875636790506
118,2,4.338805780454948e191,-0.060825794659594944,0.8097079439785713
119,2,3.4034078933900014e191,-0.3011377863028229,-0.020985124119458756
120,2,-1.7440908425650433e192,-0.8471872967928477,0.7586828298793559
121,2,-4.4148420548337526e192,0.03532878686473678,0.9242716038670784
122,2,-7.536019921302182e191,1.2983024327695112,0.8143707574894145
123,2,6.183823290830574e191,-0.33177743740586174,-0.6129638967817936
124,2,-1.043506560942857e193,-0.8436985017609125,-0.8456192624023565
125,2,1.0870466141882348e193,-0.8324381865528698,-1.1590788012037374
126,2,7.570799700270142e193,-0.26229090720805903,-0.724039425336539
127,2,-3.304155151297645e193,-0.48624254854679616,-0.7191313016758134
128,2,1.7266027650030537e193,-0.05972939088813331,-0.35196500318912993
129,2,-4.385240449316565e195,-0.999780825735243,0.9144293057652781
130,2,7.884167040065185e195,-0.6600216335133796,0.7248818758582363
131,2,1.4090441235670572e196,-0.23185145057878567,2.7293654316567193
132,2,1.4187453305538148e196,-0.2308663987643786,1.221107647539444
133,2,1.328176873036341e196,-0.44882456903336976,0.37882087231173667
134,2,-5.031763540926798e196,0.27581330295446904,1.140196829426185
135,2,-3.0968070447389987e196,-0.24543713295653627,1.145535008819636
136,2,5.776188781907998e197,-0.9384751808737688,-1.0138637964848025
137,2,-2.593063008366831e197,1.005940480540447,-1.9148052105108395
138,2,-1.4255231717697196e198,-1.1019948812541123,1.1224834696933907
139,2,-4.246029981771194e198,0.10454850797962449,1.4958799313080147
140,2,1.965034927326282e198,0.6590129967787975,-0.5475107124960804
141,2,3.271011072735457e199,-0.8651959196566134,0.8169874234404476
142,2,1.954637544118604e200,-0.19289859043819785,0.8020365949141469
143,2,1.3942346498980442e200,-0.3106562486903707,-0.6248092290922752
144,2,-9.463443494834581e200,-0.8680526026085849,0.7216984100762296
145,2,-4.013194215014097e201,-0.06364545749195134,0.8620555045017003
146,2,3.2424349212901265e200,-4.187178698257452,-0.29883595726468226
147,2,-8.51914756898658e199,-5.078611685380767,2.73327977306055
148,2,-2.7470058518035043e201,-0.6206821874473425,0.28922332598786865
149,2,2.1795116299738932e202,-0.8815507427142136,0.8633732113779002
150,2,1.1974122648038987e203,-0.6434158353459198,0.9555436555706416
151,2,4.324505750457793e203,0.004355798337814545,1.0162942084497857
152,2,1.6648482027088914e203,0.7380193874457498,0.9515998963378027
153,2,8.744645795894755e202,0.0016037926969110926,0.8850589413006889
154,2,3.1509672683077047e202,0.4232942142217931,0.5159235907038575
155,2,6.011420880777984e201,0.8095351511059619,-0.14379903375124772
156,2,-2.3113335148546338e203,-1.042480488544966,-0.02553628228841961
157,2,5.452956841974609e203,-0.05755283489449149,0.0999387129725598
158,2,4.404097185739783e202,-6.980173725902676,8.16093203146902
159,2,6.13780144658819e205,-0.9979640722331182,-0.0903421860036119
160,2,4.636018175780819e205,-3.050921003397834,-1.4850743383487317
161,2,-4.9290298684981636e206,0.1615528498552205,-0.051144109515842806
162,2,2.0193273856144894e206,1.365674222287738,-0.20893697287086813
163,2,1.832438334823261e206,0.33625418160172543,0.541211140054071
164,2,-1.7647558590968283e206,0.757611396195708,0.39813317059922204
165,2,1.3854523035438703e206,-0.8419775905293427,0.7331440392832438
166,2,4.007121824443341e206,0.0061790785150248485,0.9060045687570103
167,2,8.609712047615202e205,0.8525823536901385,0.6993046788640674
168,2,2.0253397825089346e203,-18.059563935755143,50.05886517874068
169,2,6.6611321297837085e205,-1.1359586312987633,-0.5000604229131752
170,2,1.2882230759952003e206,-1.1863892331059962,-0.1072786095072812
171,2,-5.132974493181099e206,-0.3121182516578307,0.026842985427423038
172,2,-9.110862523519413e205,-2.485437944262499,3.2432199467529164
173,2,-2.777322841186715e206,-1.0041482059782862,-1.415871666246061
174,2,2.999164407884675e207,-0.8717366589470742,0.7413143489023386
175,2,1.0969466465816799e208,0.00019641536804314454,0.9158457886912246
176,2,2.9938508800763424e207,0.8726307347043252,0.7418825497152627
177,2,-4.105705899495302e206,0.39835080465376205,-0.6185175042289969
178,2,-5.090934248432591e206,0.20083822591959583,0.8002548008045577
179,2,-7.6922852195981095e205,1.0978108296276157,0.8394946740343411
180,2,-1.3614198284956847e205,-0.03785146675219885,1.7926824157837136
181,2,-9.959026213567045e204,1.04166920203604,1.7370606878292612
182,2,1.0921024810287958e204,1.973559355807321,-0.26190045212336865
183,2,1.7975030380985355e204,-0.15489278458611092,0.24143545901126404
184,2,-6.781990206462477e204,-0.643390172057522,0.7719212012687487
185,2,-1.5487716181724607e205,-0.08874503564209646,0.6939650661031602
186,2,5.967905265211932e203,-4.144091720322073,-2.294648348100793
187,2,2.0809342371685214e205,-0.7565035300675238,-0.613795109369852
188,2,-1.5902471346241296e206,-0.8212016735912173,0.7474674814036488
189,2,-4.584706188172595e206,0.12177061653829298,1.050728424940455
190,2,-7.799875179145562e206,-0.5921972764234746,0.8627465401341037
191,2,-2.5327175649055893e207,-0.27166325524594936,0.7294850759019653
192,2,-1.8236908194210114e207,-0.3631807472162109,-1.1431978239486675
193,2,1.4815413049335426e208,-0.8675964405507199,0.7882003877988353
194,2,8.540470135550582e208,-0.20070519095787678,0.7951541058724854
195,2,6.9214195085310255e208,-0.4001377783431974,-0.6122033536450802
196,2,-5.032985018454464e209,-0.8718743783787928,0.7419240995952522
197,2,-1.8367846410870126e210,-9.065781724092918e-5,0.9159727006141737
198,2,-5.016951143504554e209,0.8688166240360613,0.7408048777707028
199,2,7.105877066916597e208,0.26673501843164216,-0.4777743330671311
200,2,9.150897487295423e208,0.20025330755662765,0.7978587204172923
201,2,9.303972621655903e207,1.461493249197651,1.1551956866438053
1,3,-1.2449600080684743e202,-0.12701273979691818,1.1161705363918075
2,3,2.217986499375134e201,0.6368043368495792,1.074257019616033
3,3,-3.037805193309018e201,0.8639680499057547,0.5478211488289709
4,3,-1.6149362726427696e201,-3.5145042910481545,-0.9011498531557466
5,3,-1.96689954323087e202,-0.018179987275984685,-0.019294352994713673
6,3,-5.188368438715302e201,0.9956436947276517,-0.02014467881443423
7,3,1.8106870744024334e200,-0.4965384623871896,0.6389722047637845
8,3,1.6185671102357715e200,-0.03779110400215688,0.4330256910401967
9,3,2.0384504558146343e200,0.35862242760017343,0.3690156770212497
10,3,2.9490890936408293e199,0.10904345785736072,-1.3498105354681182
11,3,-5.691872471791944e198,0.3554863766770192,2.402098270113653
12,3,-8.668554110701569e198,-0.0965744093293236,0.9081462150925939
13,3,-3.671783491399156e199,-0.011935866765079371,0.02908394480766333
14,3,-1.346611050069545e198,0.8040188343375061,1.0433000324080874
15,3,1.3765380063342574e198,-0.14923502341381667,0.09837372616005496
16,3,-6.5358358878000345e196,5.300242216900258,30.73132040812449
17,3,-4.770850942113532e197,-3.048324748307118,0.6553204494831125
18,3,1.4058160966495387e199,-0.505633584110452,0.9079604000813293
19,3,3.273033096419154e198,0.8507850419457366,1.8495876000756033
20,3,4.293308325525581e198,0.9227655600078155,0.20055343181518143
21,3,3.026216960531496e199,-1.358768753486184,-3.5890178272906077
22,3,1.514896090883244e199,1.7154165770935528,-6.847968860641632
23,3,-2.2052594585178773e200,-0.2460067582463151,-0.48722766384750654
24,3,3.180849493996834e200,-0.43552147084344006,0.6110199967676003
25,3,-2.7200846019089056e200,2.7142732939100878,0.17796111804668366
26,3,-1.4635278692340774e201,-0.5535753891849342,-0.5710402115422364
27,3,6.445732592646815e200,-1.5710114279387313,0.5868544360189133
28,3,2.3380923787340754e200,-7.327892105424834,-3.780815852138186
29,3,1.1534788191879115e202,-1.2490425487284624,1.5937866215062328
30,3,-1.645714221804652e202,0.014635917232465028,-0.12641710301881706
31,3,-8.913494594903665e201,0.47996964439022105,0.5324122244679639
32,3,1.0031987100467782e202,-0.02187679038231603,0.39698263175406695
33,3,-1.727656684683825e200,7.035071476460223,-1.108561481017723
34,3,4.3922949208047456e201,0.27614397518898665,0.5851981326721676
35,3,-1.2807295805644422e201,-0.08648302926940532,0.7540884725934892
36,3,-1.6863828134679734e201,0.2494148938906144,0.7918199308847668
37,3,2.2690915126614142e200,1.2437262436551244,0.18331098188284564
38,3,1.1134190663708028e200,-0.1257796138371951,0.0035921003244789207
39,3,-5.975485005015978e199,1.0164386762862312,-0.03862936440019791