TITLE="BGK Re = 100.0"
VARIABLES = X,Y,Rho,U,V
ZONE
I = 201	J = 101
F=POINT
1,1,6.370523708170082e128,-3.363954767564095,2.059883832792794
2,1,3.656039134030693e129,0.3219536950790277,-1.982218699948154
3,1,4.63135485213046e128,4.67052913137581,0.15724300711635922
4,1,1.0941564442331564e129,0.24018186736705158,0.12945226526482315
5,1,-3.5485005716599546e126,51.641705109137504,-77.16557088837027
6,1,1.9471491197502235e129,0.7048746308477429,-1.8816656303386563
7,1,-1.3869968778880897e130,-1.0528830522811674,-0.1301294169216346
8,1,-1.641633436266968e130,0.14101294724108696,-3.749357960005674
9,1,-1.555204132382988e130,1.0741461745982712,-0.10181451932341973
10,1,3.18639001973909e129,0.31066461588172334,-0.10022441238315963
11,1,2.1650558821096306e129,0.7710122689931626,-3.100789494272498
12,1,1.1662240312344663e129,1.079296202074764,-0.12099894331751868
13,1,-1.6601723618851527e128,1.0501459800868287,-0.09008888801468404
14,1,-1.2245147543491824e128,-0.6874160585718923,0.2835842706982623
15,1,3.485112166742822e128,-0.5311334632089183,-0.035222798622090615
16,1,2.7815929153735816e128,0.8307004703442544,-3.1796072863271165
17,1,3.207192894289425e127,3.252797700441614,0.3793736967724853
18,1,-3.0314073903599424e128,-0.9078113474093126,-0.30160468924730066
19,1,2.1786214149036258e129,-1.043473259402653,-0.0692684491246894
20,1,2.1645793882525833e129,0.2189206487596451,-3.8679839854645732
21,1,1.4830713138539194e129,1.9866158619856435,-0.11447369729285221
22,1,1.5919450756277886e129,-0.5873666549550979,-0.0555868816610841
23,1,1.0053833510483815e129,-1.8984469775093948,-4.023013853383905
24,1,1.3841903758063531e129,0.6490537275547921,-0.44698696085891315
25,1,-3.403095827861954e128,0.5702901225574717,-0.5269450750085273
26,1,4.6021985682826045e128,-1.1442801578285349,-0.007744966796690518
27,1,4.856986379412611e128,0.03786363693222619,-3.9314589884797804
28,1,4.879291651083899e128,1.0524371722296626,-0.09400063727777806
29,1,-8.825942832171851e127,0.4020940607330957,-0.16624154879778824
30,1,-4.76341751904258e127,0.6653537857978324,-3.1700570111867803
31,1,-3.2511389678905104e127,0.9405584648915079,-0.18634878910948588
32,1,1.3744486406347195e127,0.36225523765668544,-0.494430734327738
33,1,2.2238652345182494e126,0.09364957908283342,-3.7886533937987905
34,1,3.436081063519942e125,2.079905299214275,-6.035282082321547
35,1,-2.2669864894124998e126,0.8536410774151637,-0.09770123639836707
36,1,-1.3595450164008022e125,0.9878223669501855,0.1106372116590607
37,1,-1.2269803375720165e124,0.848617839299379,-0.4597123164597947
38,1,-4.6158624048045366e122,5.393913831960118,-1.478851026232298
39,1,2.8986169528253416e123,-1.0609284217598327,-0.46356672398313015
40,1,8.109326893254947e123,-0.8615514260893086,-2.844659545047623
41,1,1.0517854398573993e124,-0.2216758822651269,-0.1723727639644355
42,1,9.16907299709999e123,0.5370372435765574,-3.4427622564760836
43,1,7.065676224792485e123,1.072312267038137,-0.10004513108608783
44,1,-1.3519387688603307e123,0.5685441396919757,-0.18844778523338335
45,1,-4.757504239840424e122,0.26219029871905175,-3.9424528657970086
46,1,-4.020392519973305e122,1.1234160310695045,-0.0953901967072813
47,1,6.5061053743663785e121,0.6440198495315583,-0.12022185690581338
48,1,1.9929283544960835e121,0.08433174660415298,-3.2951891041526133
49,1,1.6482889423721792e121,1.0388561292507217,-0.040612655200356396
50,1,-2.5044790841040062e120,0.8212981952308333,-0.2533824280675606
51,1,-3.690983085596071e119,-0.7560985500911924,-3.3503855358088654
52,1,-2.1270170066241772e119,1.0455156834225423,-0.014529523156425335
53,1,2.184959761376854e118,0.8552427474573262,-0.7343138921814549
54,1,-8.943514685689791e117,0.04353117367352717,0.25719188325798414
55,1,-5.551022948966329e116,-16.563417687055196,-5.083219249238998
56,1,2.631067531522378e118,-0.9532461676594152,-0.028723430934934367
57,1,2.1889483967558724e118,-0.1598942506409032,-4.325617985445111
58,1,2.425419996349293e118,1.045259564398915,-0.09008387264598566
59,1,-5.160052680752459e117,0.569299647270494,-0.2566137205197327
60,1,1.0068685815619597e117,0.8101443379489318,0.30845661059219526
61,1,5.931931455941445e116,0.7116837805318592,-0.1827599071084763
62,1,-8.142082075379292e115,0.598338619202437,-1.4990534004396991
63,1,-6.347855207661033e115,0.42282587340498506,-0.5302449761888319
64,1,-1.225689508358517e116,0.17415374961408717,-0.9355911689543172
65,1,-4.226635951648021e115,0.9685394319913129,-1.075285369746616
66,1,2.5486136360228963e114,0.6497933250530904,-0.5540167748846716
67,1,-1.3586377566850174e114,1.0148751636822644,-0.5043660016456332
68,1,-3.291920769011503e113,1.4791842069610928,0.5657456030838
69,1,-3.1045197348510675e113,-1.7436942836542775,-2.7273701677593993
70,1,-9.39805458289498e112,1.2720171836293566,-0.1468323313104733
71,1,2.0346981762815626e112,0.38825104600217203,-1.2160615335826608
72,1,1.4482764237878248e112,0.5208532279334496,-1.3289593781904745
73,1,-1.061448249828282e111,-0.003824351095992097,-1.750226086950266
74,1,2.6145352575463065e111,1.4048155919817273,0.16295845797789607
75,1,-6.63027876698128e110,0.7352915156412041,-1.0246498085208244
76,1,-2.9390764254406444e110,1.0895067260195646,-0.0330568018567099
77,1,2.4215968467256185e109,0.86618020436318,-3.218460432343487
78,1,-7.88109425067324e107,37.181207240293624,11.812653842079287
79,1,1.5570775870729443e109,-2.1238740463693127,-0.8328610896276764
80,1,-1.4359910710500769e109,-1.182254166343449,-2.3059943904613305
81,1,2.6418305403976016e109,-0.06913000118809087,4.150069471134494
82,1,-4.5531054440875024e109,0.31832111161308607,-0.7841131529429357
83,1,7.449873176125385e110,-0.9770453762849644,-0.9229754779290666
84,1,-1.3128367982718747e111,-0.013168169738208387,-1.0434764981507765
85,1,6.136640085566076e110,0.9842572559059412,-1.0026495124227925
86,1,2.495651187020215e109,1.236706574665932,-0.5244207056159231
87,1,-6.938557530161333e108,1.0151502255861524,-0.015382246891284113
88,1,-2.1299570361653827e107,0.2974082923911823,-0.12924659961953605
89,1,-1.4083069857167725e107,0.13270519478396306,-0.8503564955360307
90,1,3.149125297635447e107,1.0565138403692085,-0.3349184249381157
91,1,-5.391962364546611e106,1.0048818664809713,-0.1947007410366743
92,1,9.41472669851126e105,0.9904816611039076,0.1482851016413856
93,1,-1.3216390199723587e105,0.7098460467453083,0.025013384188033477
94,1,8.95426460520302e104,0.7943028704591123,-0.8473545863909995
95,1,1.1673376342563906e104,1.771402793010004,0.6413926439109136
96,1,-5.993033418865611e103,0.6944400855794334,-1.3369283379122434
97,1,-2.370656304127251e103,1.0215423408565159,-0.31460075503422763
98,1,6.250538409769697e102,0.9363620041044436,-0.29474641507383664
99,1,-8.633052828613203e101,1.06563947168969,-0.2620665740098885
100,1,7.697930402749509e101,-0.9621612847022325,-0.2717005356762598
101,1,-5.658791925265912e101,-1.5827379300489393,-0.9980523638809767
102,1,-4.370772214592267e102,-1.0590635266744848,-0.055200849927032475
103,1,5.107564735245359e102,-0.6598393702630764,-1.06543167358937
104,1,-5.047622972126549e102,1.3719182925338826,-3.5618623893968637
105,1,-3.418889306352578e104,-0.9794864696501671,-0.4500140523878125
106,1,-4.1913156852971527e105,-0.9769886147201431,-0.37020705167793844
107,1,3.733712362518381e108,-1.0001485312212746,-0.3949496052690345
108,1,1.0423468861810678e110,-0.989193919680457,0.14574947920925832
109,1,-2.9527723181939915e110,-0.8808850855643358,-0.6773639143617552
110,1,-1.4486163571742352e111,-1.0555267388222147,-0.31909237415308617
111,1,3.3333419666468077e111,-1.453796808061361,0.856519013859674
112,1,-1.432637930663242e112,-1.0971119865650272,-1.3713463628256162
113,1,-1.339288044216084e110,27.674597015678685,150.92755935563758
114,1,5.461205467894079e112,-2.2981309041035543,2.108091247394093
115,1,-5.0273892473139626e113,-0.8059997998671911,-0.7172712116498194
116,1,1.740258438632166e113,-1.3074978889327422,10.232152009692436
117,1,1.2064765657028743e114,-1.351624343770236,-1.7831446601953043
118,1,-1.6954317408026938e115,-0.8283710613675765,-0.9753352894629828
119,1,-8.439394823399701e114,1.1123066134863833,-0.9809120942713105
120,1,-1.2971251638725744e115,-2.407040035387817,-0.5563218083488979
121,1,-5.255111012829669e115,-0.2979774718099657,-0.8681094811613188
122,1,2.259243620410741e115,-6.47414900631302,1.0527753191480123
123,1,-7.838578760668881e116,-0.9429171687647543,-0.1246960609496511
124,1,-6.851076401005402e116,-0.055585826802173444,-4.211904858071449
125,1,-3.2764087141900425e116,4.388479053455934,0.08608792023433696
126,1,-9.241463999509056e116,-1.2095489723396884,-0.5471456604774153
127,1,-1.2054213613778177e117,-1.003414215861786,0.08499260574255817
128,1,-6.695228548528317e117,-0.7092337610917321,0.1430575212799392
129,1,1.949361398642772e117,-1.7997045815875874,-24.541064949769236
130,1,3.769310620950154e119,-1.0067501703623274,-0.11902447848245529
131,1,-2.693283698481968e120,-1.0316099765619868,-0.13648577568258208
132,1,-3.080162601036081e120,0.26859848167772155,-3.4307873710439427
133,1,-1.935744339223045e120,1.2450711166316804,-0.30921746227032443
134,1,-2.8014654061052195e120,-1.1835651016770787,-0.6824332677711978
135,1,-2.03998344060814e119,0.5699685664146815,-2.2099781234223
136,1,-1.2258059668768801e123,-1.0023787373405249,-1.0020319769994204
137,1,-1.683217775043385e123,3.0360456975228236,-1.0043138612708096
138,1,8.644537953008197e123,-0.014181828129557024,-1.0088316925374354
139,1,8.343759189589119e124,-0.9910266975317094,0.05080789197462634
140,1,8.660390649891904e124,0.021452219617229436,-3.001516405009119
141,1,7.065762711782971e124,1.4781875203390142,0.018948693022475017
142,1,4.927235877482632e124,-1.1572813524139587,-0.14848286213269363
143,1,6.7335594413517025e124,0.6775861611557077,-3.0069048504083455
144,1,3.9443042735906554e124,0.6530493220350455,-0.43765847998821955
145,1,-1.27227928774185e124,-5.616273712603699,-2.9286243436453443
146,1,1.5434095335129032e125,-0.20026935358180653,-1.022347914210013
147,1,1.7923626550765626e126,-1.0065867631695233,-0.4258728825180608
148,1,-3.483486321599968e126,-0.341735367182236,0.20923205981784582
149,1,-2.9096557145769307e126,-0.7086518283008624,-3.385255039821444
150,1,-1.4621103059272856e126,-1.9831398829476268,-0.07270770474282447
151,1,-9.236771516601528e126,0.021674212464212226,-3.1338435327378393
152,1,1.6000366455155032e127,-1.8290790954724443,-0.3371976523323528
153,1,-5.910894804733865e127,-0.5853987758685217,-0.6794421392050195
154,1,-6.466485343099659e128,-1.105037729901987,0.44216337944347983
155,1,3.473077772966013e129,-0.21482095104101742,-0.1377862555788766
156,1,-1.0974468701627407e130,-0.873740749743486,-0.04582630077615742
157,1,-8.884576992791766e129,1.1579574501893846,-3.721611119574167
158,1,-8.162287798176032e129,0.8551904940139821,-0.10368196128022318
159,1,3.775381399828723e129,-0.1643278198255814,-0.21240806972476403
160,1,5.109714263807324e129,-2.2367197291050056,0.7745475611939543
161,1,2.4593054238743877e130,-0.7620269733541264,1.543432361488576
162,1,-6.16468893868877e131,-0.9668669296047209,-0.2540220810741979
163,1,3.9403266713015336e132,-1.03633997510785,-0.0782251702003347
164,1,3.9395342426454963e132,0.01279896923235937,-3.9412180640087526
165,1,3.904419429929315e132,1.0617436500345712,-0.07764912291956304
166,1,-6.59355573161315e131,0.571764630531001,-0.19005388120366343
167,1,-4.595509555659177e130,5.485118786964819,-17.173051235384833
168,1,-5.725241611518267e131,0.43864389185423963,-0.15346829313201732
169,1,9.56751839370149e131,-0.5628707131677506,0.18363699582021445
170,1,-1.3595982252475717e133,-0.9335673901043828,-0.8943475361855562
171,1,-2.1966724284636322e133,-0.27362929802380137,-2.9857796296671952
172,1,-2.694847732158827e134,0.7667526528711444,-0.4683281836646722
173,1,7.634957325902999e134,-0.8652102790718321,-0.1979149211965546
174,1,-3.1980644502800284e135,-0.8061019241309999,-0.06084055225298071
175,1,-2.4330717850382486e135,0.4184199946580054,-4.1551624173342105
176,1,-2.4187977116236465e135,0.9520142506860351,-0.06407059609829359
177,1,4.8243535385382046e134,0.6996819239179376,-0.31101524681950127
178,1,-9.072872170241143e134,-1.1066421624933178,-0.046587040059466046
179,1,-9.463254373974682e134,-0.0030252022023776587,-3.921429560266317
180,1,-9.404269204261115e134,1.05200949601404,-0.07404990843877404
181,1,1.6218219993792228e134,0.7017809040389762,-0.2835516855597205
182,1,-2.0401974753337408e134,-1.0643290816115025,-0.008516932930536238
183,1,-2.1288865950633656e134,0.1030217642722776,-3.8717035560340216
184,1,-2.1086736512821166e134,0.9907279495965773,-0.06390804939132473
185,1,2.724844463908692e133,1.477835060891774,-0.010237227111217669
186,1,-1.3102207583598947e133,-2.5748052286238186,-0.6088236670571093
187,1,-5.910826112883496e133,-0.8040849530004324,-3.5650358815135865
188,1,-2.0663663247896712e134,-0.7060780310421536,-0.208560772696577
189,1,1.2733333469554005e135,-1.0579113070343782,-0.09362847451074166
190,1,1.2094688282136422e135,0.31024890696816354,-3.9492052968435445
191,1,4.204472413676141e135,-0.6714821707437258,-0.07145812705957906
192,1,4.501183278482325e135,0.1908487306762534,-3.7265787816194
193,1,2.023543161659917e136,-0.7150776973560063,-0.21839420527249037
194,1,-1.2107293201619793e137,-1.0489230657003685,-0.0781965514577762
195,1,-1.2223995976124278e137,-0.04182328807130585,-3.935413681661262
196,1,-1.2256001714938077e137,1.0292707636900218,-0.07649923746055319
197,1,1.972740549500486e136,1.0177617890979382,-0.3542688966180773
198,1,1.4552755029156772e136,-1.1210101033442559,-0.39200374909156843
199,1,-9.235624330508895e136,-1.0316940353461952,-0.0659608502507224
200,1,-9.57704109193136e136,0.57926589941482,-3.88130345597908
201,1,-7.457431511128232e136,1.5882399858671177,0.11239663397100695
1,2,2.974705451287913e128,6.916343153440589,-9.85391413211953
2,2,-4.119532533603358e129,-0.16038469354316692,1.0431504230216133
3,2,-3.052392686441541e128,0.7530410763035889,1.7746845874363664
4,2,2.8416270096639336e129,-0.7713230801393274,0.15633815022581993
5,2,-5.756743407646469e129,-0.198431901590228,0.19893871893860593
6,2,-1.4382770213810522e129,-1.2683187353831133,-0.709735382326869
7,2,1.1068516563989881e130,-0.7681485860853697,0.7332955252176387
8,2,3.648936965554679e130,0.019845590901542236,0.8493834121529982
9,2,9.157018993678586e129,0.8349771721500233,0.7024528594569233
10,2,-2.4507013180625895e129,-0.325067196890748,0.2257725825462029
11,2,-3.8141456777350116e129,0.07472131173200239,0.852489703969877
12,2,-2.2994269362294955e128,1.0103862717338432,0.5176871547802873
13,2,2.1129148683879212e127,-1.7640651573971176,-6.930166689716009
14,2,1.1875201829436653e128,0.8219857309491916,-0.7516384688098232
15,2,-3.1282591957826675e128,-0.842199504967487,0.7963821438659545
16,2,-4.45990095382566e128,0.03667943484944374,0.8924756550212894
17,2,6.183524052764451e127,-0.4083312697691963,0.39417226989144
18,2,2.0272926897818297e128,-0.8608918675619661,-0.8059510725969924
19,2,-1.532165096521221e129,-0.886841677948165,0.7794800545767858
20,2,-4.9209285152484947e129,-0.02611907637779217,0.8808633355302633
21,2,-1.3958891429699802e129,0.41795697644100877,0.7901377511284101
22,2,1.7812042096828185e128,3.1099600518561776,1.4476032605467168
23,2,-2.669386556616792e129,0.011698958516702298,0.6013836944062443
24,2,-2.6968749773075267e129,0.31918348959189063,0.36986597229709584
25,2,1.0661624571889663e128,-0.04884756498053056,-1.2039816801698304
26,2,-2.9979023342744446e128,-0.9576936398472679,0.8711662211662478
27,2,-2.597775649313765e128,-0.061044816612139306,7.077897150645627
28,2,2.1037485053144625e128,1.293813186084019,-3.451797714336482
29,2,4.442760583739557e127,-0.6016338459243248,0.16298567792373986
30,2,9.531796665280249e127,0.11451165842824529,0.7928802652996618
31,2,1.0728340475073915e127,0.8575981508011331,0.8670074859295245
32,2,-3.223438474357648e126,-0.684668934414211,-2.4266253174016574
33,2,-1.6548602447365895e126,0.36576864833371286,2.0649614437244153
34,2,8.576702232725414e126,1.0133103441527935,-0.6624508919517939
35,2,9.667532274917515e125,0.6635587485029658,0.5938684323589671
36,2,2.1370318986398145e125,0.9110040006560937,0.6696807712318749
37,2,-1.2921754205102542e124,0.7273350078129722,0.23063815228367587
38,2,5.36122878292655e123,1.2524678546840837,-0.4255068753259969
39,2,2.377520051733903e123,0.9168750777554058,-0.40221892471103216
40,2,-1.4869188016869608e124,0.1354209058281675,0.7902360000962295
41,2,-1.2970295755260358e124,0.03701000424100376,1.006124137479057
42,2,-1.8399984810136882e124,-0.0015340522140935011,0.8228583413657631
43,2,-2.6034981354745142e123,0.8556496456254284,0.8081667723880086
44,2,5.6365481563210905e122,-0.28292069418216803,-0.6706069148439173
45,2,1.2795424659514294e123,0.1449827184907287,0.6978319265147703
46,2,1.8533846227377735e122,1.0124940402111229,0.8609826778234443
47,2,-2.7911944375194967e121,0.7986046929122399,-1.051752829920524
48,2,-5.8134970701763035e121,0.37858407000575023,0.596608071513746
49,2,-1.033560337214e121,0.8424686030384705,0.8211038707298343
50,2,1.301298279503026e120,0.6778780139826699,-1.062598185695802
51,2,8.885737697535848e119,0.3723508626889236,0.6421279001882121
52,2,2.8959604685118794e119,0.8045863937131318,0.8780195174529202
53,2,-3.2752907157524322e118,0.7686627685327388,-0.39799697789284305
54,2,-3.307887296546372e117,0.8307974820496231,-0.2779258508686046
55,2,1.961057071792487e117,0.32967674773461353,-0.8132322130968628
56,2,-1.2161344782851815e118,-0.9471445997814779,0.703285217710369
57,2,-5.571741514481432e118,-0.011395931740943043,0.8682000324517759
58,2,-1.5560930599025837e118,0.9524447445529945,0.7767188048325352
59,2,1.2312968567220802e117,1.169468560227718,-1.5332595943950444
60,2,7.66635091432469e116,1.142461066658453,0.5460087962070281
61,2,4.570116599353252e116,0.4416939565679756,-0.3244448459826424
62,2,-1.3576387216678335e116,1.048401767551099,-0.10744919681835503
63,2,1.22944647657392e115,-7.154226367464813,-4.735129033330178
64,2,2.102522904135126e116,-0.014022245617379666,-0.03066605538710923
65,2,2.8566432443200164e115,1.1065375621151878,-0.15433197222647982
66,2,1.4662956555235718e114,0.5032160242424284,-1.134836904056184
67,2,2.618108490610516e114,0.27975892429867816,-0.17718674390710293
68,2,-1.3189852642967506e114,0.5901372945559226,0.4334519537695065
69,2,-9.959083672451353e112,-2.4626454195390224,-6.671238143035811
70,2,2.072949492176811e112,13.004468550436407,36.806311895322466
71,2,-1.1648517226578871e114,0.3798370639558409,-0.9108257756302581
72,2,-1.3850435034460665e113,0.8771252924067167,-0.8939366848634551
73,2,4.907791617627946e111,1.0078127506019436,1.6081727552141685
74,2,3.541459653295156e111,0.264670616901642,0.390137871515077
75,2,-3.211364571569436e110,2.781828606046353,-0.12470933593608582
76,2,4.068437951417779e109,2.838934698513956,2.4833378842575953
77,2,-7.051759676478995e109,-1.5919903767663672,-0.8881615219234895
78,2,-4.8471087534277365e109,0.7708774866743938,-1.463217806600361
79,2,-1.7793487206151027e109,-1.7041035676150704,0.9954288632661203
80,2,4.021251614604417e109,-0.4919430574796557,-1.0722491992196141
81,2,2.5565101999097902e109,-0.5787391557984322,1.3263143919595024
82,2,7.378516598800291e109,-0.06280611121290033,-1.000269360384229
83,2,2.7963315232437144e111,-0.9613477581783131,-0.031470982790121844
84,2,-5.560838577747647e111,0.005442052098630516,-0.002905139872077252
85,2,2.7264903058171357e111,1.0106523393940117,0.008263996811993631
86,2,-8.209155394311114e108,0.8804531900481761,-0.7940802313294727
87,2,-4.2759059653442466e108,0.9070811230549616,1.102317848584269
88,2,8.353903687936177e107,0.007033428673283598,-0.09730567025131096
89,2,-1.416304506649201e108,0.13150723550281154,-0.07560518952507914
90,2,5.699009575230703e107,0.7065976711071434,0.25833236065741466
91,2,8.9667553859749e105,0.6928351554982021,-0.013165562197370485
92,2,1.7947452960294703e105,-1.9875887353920763,-0.29014465407836026
93,2,-1.4555274487374004e105,1.5660425554346353,1.5353512429873213
94,2,1.646028019874569e104,1.2662827654388082,-1.5032353930978066
95,2,3.855752035799281e104,0.5122937732350453,-0.7747395312850053
96,2,7.780196808662105e103,-0.057227357480301486,0.18545443224292807
97,2,3.4062932804882525e102,3.0288042577707555,1.7599980187172732
98,2,1.0783678937859695e102,0.2683404381712913,0.5249993488652162
99,2,-2.0526091762182283e102,1.4433264384682951,0.4279528090668723
100,2,5.787857716626741e101,-1.821689168283612,0.23753495446132855
101,2,9.993628497120813e101,-1.7538810979025812,-1.5248823889233007
102,2,-1.2755686393548088e103,-1.207460766318577,0.5594926008831262
103,2,2.7282815218688863e103,-0.7138466353240976,0.11607274828722704
104,2,-2.057858476880816e103,-0.1989796996436818,-3.834777698259649
105,2,-1.0019195460241498e105,-0.7823548941203264,-0.36736283621977495
106,2,-6.201009913943984e105,-1.039263063792935,-0.2621689010346444
107,2,-7.320110037261327e107,-1.0041668982035203,-2.733996300132117
108,2,3.6734895511230385e108,-1.7697598356496909,11.888133179007488
109,2,-5.4503375612868056e110,-1.0762279063228062,0.30994657285899857
110,2,-1.7096064080086722e111,-1.1307637409224174,-0.18519419584009691
111,2,1.7841544790973336e110,6.031532999161866,5.215098563243255
112,2,1.1181521031491755e112,0.10617545151366552,0.06069613667727087
113,2,5.640193464624976e111,1.3812816680429658,14.916973330483756
114,2,-4.949635108011724e112,-1.3726756250262948,-1.6525710054521856
115,2,2.132129338511007e113,-0.2816847384219838,-0.9503058186792366
116,2,2.240099367288086e114,-0.5777316581072597,0.09013772427762337
117,2,-6.564313969160928e114,-0.649470806206781,-0.7782549152086553
118,2,1.113680514694087e115,-0.8342944718645121,-0.01263965975466102
119,2,-9.413205083697094e115,-1.5629419844861452,-0.9648128528360453
120,2,9.948637267517707e115,-0.26798656167400786,-0.44254209284847296
121,2,9.452612257162169e115,0.15755194065314734,-0.3810081001811082
122,2,1.1560065543880096e116,0.3304616808948742,0.0444634389691565
123,2,1.2270696373399805e116,-2.2102840680531033,3.4508635137949653
124,2,1.4270670116648256e117,0.015418250868418089,1.2875260834453595
125,2,1.164544637781317e117,-0.11346736289782755,-0.09884081719076557
126,2,2.9720735761524445e117,-0.6238486628214909,-1.0918226018024089
127,2,-1.2002501050247612e117,-2.404632205049375,1.5262000968868037
128,2,3.6106707889004797e118,-0.4993668045947469,0.05533505034271343
129,2,-2.785816882724507e118,-0.7084333746685102,1.1518792040819823
130,2,-8.066624655534182e118,-0.9164541222482725,-2.2659384712184503
131,2,2.5026314569648165e120,-0.7663681095082266,0.673035989518082
132,2,6.107846583820803e120,0.04649477969030011,0.9116947264203257
133,2,4.0143846979979353e118,59.92711997228543,48.82747790445589
134,2,-8.158941741235762e120,-0.8317170565548321,-0.26994692532839754
135,2,7.450705713000522e120,-0.3182584982495445,-0.18582528079010688
136,2,-1.7011323026300573e124,-0.9998974172052196,-0.6017018242126805
137,2,1.429335152641747e124,-0.10169011084084877,-0.4119011072852544
138,2,4.644091177221668e123,-0.08751702797822572,-1.9117422084196836
139,2,-2.8718122628254602e124,-1.6558779394913836,1.7943566826964599
140,2,-1.950663903263668e125,0.09471834604251338,0.8382570011864612
141,2,-2.2999455985020178e124,2.691169576970878,1.9152639908440994
142,2,-5.463332634000021e124,-0.8220906498888478,0.7764388666611485
143,2,-1.3140710575857258e125,-0.22642306415671448,0.909391466064169
144,2,2.0117227024644392e124,-0.9788116581802584,-1.3354450074371977
145,2,4.518458265070239e123,-9.766146380338968,1.2642297309320958
146,2,-3.561613078258152e125,0.4934277875874273,0.1661458256274435
147,2,-1.6126107399442897e126,-0.6962393033443255,-0.6023964944821958
148,2,4.3161459410127467e126,-0.33504869779481344,0.20870245374894814
149,2,5.83312300593971e125,0.32403036155049325,7.344849780615294
150,2,9.767354805611511e126,-0.15377905110462214,0.28956130799347624
151,2,1.37830614465073e127,-0.251067106137362,1.0244915618309445
152,2,1.0070619954103272e128,-0.8794629138665624,0.030875379505519357
153,2,-9.263923648124343e127,-0.4808087013038214,1.9519178382655256
154,2,-6.859689090816343e128,-1.3712872129012055,1.1041860023341221
155,2,-1.2819568700932517e129,-0.6534501354598301,-0.6361820144242966
156,2,2.7205641130007565e129,-3.291711859596147,5.8754867559950705
157,2,1.9099286456416214e130,-0.35823952069839843,1.2964211831394825
158,2,-9.350022313680776e129,-0.2805534354536365,-0.16767077027236293
159,2,5.92310904786215e129,0.028905931716398228,0.13766670799856237
160,2,-3.0923438437325077e130,-0.8232513305026489,0.3149753230955635
161,2,7.773361074952871e130,-1.044420197933161,0.0301388116793872
162,2,3.2684711500351246e131,-0.7853970335162372,-0.9816776796355065
163,2,-2.436604393458484e132,-0.882163331023084,0.7432842118903287
164,2,-8.850399691121039e132,0.0016553870482109464,0.9199715220487098
165,2,-2.3920318709304477e132,0.8759059777565541,0.7509529673756772
166,2,3.2869546269762443e131,0.2569755292890211,-0.43545515638960564
167,2,5.876397950243221e131,0.0712838095109685,0.8386275691588887
168,2,1.0659350224824502e130,1.5280786225187646,-4.8746074365321475
169,2,-8.602478462431896e131,-1.2340280520738245,-0.42974554759333794
170,2,-3.655840711451573e133,-1.0252833384055133,-0.144387176448027
171,2,1.6139297286376757e134,-0.8235393897477735,0.9318547577846064
172,2,2.2416376215262978e134,-0.09563219495969058,0.3350196958959614
173,2,-2.807626157584268e134,0.2943773980296187,-1.6573813483032545
174,2,1.9874857526431575e135,-0.990509599722816,0.8577289959557153
175,2,5.758536152240586e135,0.02221789974719331,0.8942807177460025
176,2,8.800212228987162e134,0.9027698771831756,0.6728610913134836
177,2,-2.739858986923201e134,-0.8023341195373318,-1.615135548305463
178,2,9.104894292601065e134,-0.5592150505279222,0.16573065758641214
179,2,1.9284813227773018e135,-0.09787000057564695,1.0885437474449655
180,2,5.7667138686429686e134,0.9012855130897762,0.753567027940585
181,2,-9.583404682994704e133,0.4302199100255501,-0.9645762585078748
182,2,1.3542264120421326e134,-1.0616577308361206,0.783030664269628
183,2,4.540698300071728e134,0.006259179773577652,0.9292096498428398
184,2,9.331398703252146e133,1.6430244064510646,1.319000198318261
185,2,-9.33185747747324e133,0.1958064029095696,-1.066624790111495
186,2,-1.0592422920215256e133,1.7263108274520171,-0.8349981842145126
187,2,1.466437151943091e134,-0.20414125532566707,0.7119791328004262
188,2,1.3790482242222315e134,-0.3537198047563502,-0.2822077898863493
189,2,-9.487312874946246e134,-0.8495429754645804,0.749513307675771
190,2,-2.6574653107235255e135,0.08705915341645638,1.0016226263789942
191,2,-3.2846949295898916e135,-0.5406968497919057,0.8632359997269241
192,2,-1.0968295764530706e136,-0.2248143900329988,0.7753190177375708
193,2,-9.741776574696583e135,-0.523505506799868,-0.7892602678097053
194,2,7.238254310758436e136,-0.8786029483910698,0.7389589843668685
195,2,2.74303232069991e137,0.0006777251524958718,0.9157142729554008
196,2,7.732514481686935e136,0.892003641510401,0.7446715012033307
197,2,-1.0948981534372596e136,0.6037011829456944,-0.8976444841333759
198,2,-1.4001150165096344e136,-0.6219200241620455,-0.5309425145750869
199,2,8.584880075444113e136,-0.8647258072817556,0.7686572802376891
200,2,2.0299881705293025e137,0.012486834042322578,0.9187625162487394
201,2,2.774424247889528e136,1.5725836530943844,1.1237308970823403
1,3,-1.055937865207608e129,0.47609176900250333,1.0689249908338478
2,3,-6.051272256799788e128,0.991447983191802,0.7329312983658058
3,3,-2.2234805872920806e127,0.15500612837795183,-0.7458007614335342
4,3,1.4162299799820722e129,-0.8653929446698992,0.6649879944490354
5,3,1.0441596708523487e129,0.0028759637858110356,1.4222611103597336
6,3,8.008806842388102e128,-1.1985481834230103,-1.1021562512903416
7,3,-7.897588818825424e129,-0.4444169374002025,0.6120163405038573
8,3,-3.680333478386572e129,-0.06516182318312884,0.9182421931870594
9,3,-4.472215826572536e129,0.5369822323646974,0.9684398314779272
10,3,7.218884821037514e128,0.0068421696761709755,0.3858527391559087
11,3,7.111846527684803e128,0.27453808652186523,0.9229318662929875
12,3,4.2025058191492e128,0.6950354154521959,0.8144228000083094
13,3,-2.1453930953315068e128,0.18444539411735458,-0.0903995144503742
14,3,-2.1372369018779256e127,0.32266152875827936,1.4047439870939897
15,3,1.2025082803105133e128,-0.4174746327792834,1.291955060201414
16,3,2.0902582246717164e127,1.056925463034117,1.346007893233973
17,3,4.392782770526688e127,1.6005979225731493,0.3210614484359379
18,3,-7.129629059666317e127,-0.11719524253727041,-0.19041174948320222
19,3,5.593811877325112e128,-0.5679555258767511,0.8851394138623937
20,3,2.9922872489524884e128,0.5133335017423863,1.2357751619049888
21,3,7.435626912557051e128,0.7941467365918452,0.5823934300534536
22,3,3.108344807590989e128,-1.1455953565490997,0.6436951723781766
23,3,1.187658590918383e129,-0.18216933372592622,0.2353856792641523
24,3,7.311134996630505e128,0.25502589590224356,1.5153721585893076
25,3,5.170940954591495e128,1.0744745053232048,1.0276757241764087
26,3,-1.8058306486123418e128,-1.512688093679577,-0.6489186472764921
27,3,-1.9450933713925074e129,0.00789067602796102,-0.0543761282038112
28,3,-1.352365708430716e128,1.8581035386655627,-0.9802740617003954
29,3,-2.3687168533444462e126,-7.937339700251846,1.9832203790131813
30,3,-2.5559688038643937e127,0.16767725790709273,0.7759122878918624
31,3,-1.1792928780119698e127,0.38138130098696565,1.4576446362123086
32,3,-1.1952710346305754e126,5.505609804513133,-1.9323715721633115
33,3,-1.2689645601755424e127,0.2066775089110093,-0.08328507685346587
34,3,6.356693543999967e126,1.0529705391782707,-0.07318054786959902
35,3,6.026413520842859e125,1.1280664908780265,0.44900398461402186
36,3,1.2642102651961066e125,0.942468475790106,0.40492687763581103
37,3,-4.900190422132012e123,0.24814162297617107,0.6310416511150883
38,3,3.257260316186909e123,0.9968198120792512,0.3507968188968568
39,3,3.045273513669988e123,0.04725896510604987,0.16193357114734072
40,3,-1.6039084257894758e123,0.7533471728603489,-0.5749178021625946