TITLE="BGK Re = 100.0"
VARIABLES = X,Y,Rho,U,V
ZONE
I = 201	J = 101
F=POINT
1,1,7.946507062049524e271,-0.3249727393917642,-0.6299724086813078
2,1,-5.2036610626318955e270,-32.816307131023194,13.508198286868625
3,1,-1.0096558797358985e272,-0.2804654618889746,-4.0138918588606645
4,1,-1.0297703466286167e272,1.066837433347964,-0.07294617079344543
5,1,2.1955190602160086e271,0.8264122169453435,-0.23786868833277403
6,1,-2.8468956957660783e270,1.2550699874095652,-1.5516760705048793
7,1,-4.030530577717248e271,-0.9585695843688855,-0.2398283693725298
8,1,2.630110973790512e272,-1.0376664002728464,-0.07614206669999522
9,1,2.6274058005796534e272,0.03131948171933927,-3.9446816449770465
10,1,2.610036134589575e272,1.0519047613401402,-0.0755970610642832
11,1,-4.420411984314365e271,0.6581579151848825,-0.1965772553755497
12,1,-1.0815826400415912e271,0.20574911497781553,-3.8870327975013246
13,1,-9.559375731990992e270,1.0315306433519909,-0.03959895117379163
14,1,1.3761956943748479e270,1.2867534589939875,-0.4642510220011834
15,1,3.1299940087449343e270,-1.0261429050307678,-0.320453512739887
16,1,-2.017546513379795e271,-1.0318442267862895,-0.04751549035271197
17,1,-2.318537778352779e271,-0.21257567548777936,-3.8396300302350697
18,1,-9.417697696260449e271,-0.664715530695775,-0.20069723786681928
19,1,5.591508350444372e272,-1.0513260439927807,-0.07640974705549827
20,1,5.558165287349619e272,0.04064117672918698,-3.953330841361199
21,1,5.529767088430918e272,1.0492673024358747,-0.07693158784958934
22,1,-9.5020439558318e271,0.6444631906466274,-0.1998953513275042
23,1,-2.3395030088591564e271,0.11718684989400527,-3.785649904446318
24,1,-2.0676274359904573e271,1.0490690434050272,-0.0384421559514958
25,1,1.1730944865569382e270,3.3399846546710314,0.540623526822047
26,1,-7.413839518087713e269,-1.764539653255366,-0.6659505282314219
27,1,-5.626385645209216e270,-0.5202883380322433,-0.5728513054310379
28,1,1.854458960596599e270,-1.5094182074141012,0.9301256988643214
29,1,-1.9564910525339507e270,1.0841186647338745,3.913376133706856
30,1,3.957587860616564e271,-0.7089838386923057,-0.32377681913253886
31,1,-2.032991037584363e272,-1.0314755062920222,-0.1717774606447685
32,1,-2.0371773614775218e272,-0.5051290239259604,-4.776318714910299
33,1,-3.0208288452664044e272,0.5714723018676604,-0.7080059288104693
34,1,-2.0852608716539157e273,-0.8640020740998198,-0.12994760795433022
35,1,3.648675549553643e273,-1.070593577503701,-0.688571646448819
36,1,7.651216193928176e273,0.5305936330543881,-2.093054790496616
37,1,-3.0574090603155422e273,-1.1123945866868314,1.4895789279695364
38,1,3.1561833089288654e273,0.4722588773761287,-0.453704352361966
39,1,-4.695730748781504e273,0.6963066998687906,-1.263339000341635
40,1,-1.676703317494336e273,0.8760182628176261,-0.5719791683404711
41,1,4.35525100146378e271,0.7994285055920844,-3.3965584074847524
42,1,2.923951466248232e272,0.9905096493159181,-0.9311428051923252
43,1,3.1586167346204907e271,0.23746865370359627,-0.24056654176025696
44,1,-2.1357218894668255e271,0.4005078617738158,-0.5467393819358766
45,1,3.2341870368452005e271,-0.5749731821977775,0.2110533783667395
46,1,3.6060469700141e271,-1.1104824575938708,-2.859289889837832
47,1,2.5256839581296983e271,1.0523231480017585,-0.04822545082917498
48,1,-3.338094016404205e270,0.7026134867596746,-0.21312638903017223
49,1,-3.6034072777731436e269,1.9168192698304423,-0.7195796777134792
50,1,7.613662060137331e268,1.017810039838007,-0.7026016792496096
51,1,-1.6368557536589028e268,1.3827104043208502,-0.5940115954713459
52,1,-7.14869488819352e267,1.2294384920429313,-0.2990899865434646
53,1,4.381718734470832e267,0.6695220852215414,-0.4909055288265702
54,1,-9.561204062074175e266,1.0735987020447368,-0.22934072033203332
55,1,-6.112901818814723e266,-0.6168787015553792,-1.6075573651604635
56,1,2.1482823969903945e264,-13.476996003782205,-47.9299524995542
57,1,-8.522081206077824e265,0.44241374184717386,0.6734275139225423
58,1,3.9835431714022375e265,1.0999513640249055,-0.7928362249393889
59,1,-1.7572081168788763e266,-0.8513780914940214,-0.9666031606406807
60,1,-4.6769227569660744e266,0.893411909408217,-1.0018247233416167
61,1,7.229963390857178e266,0.05367946813173674,-1.0003392718911686
62,1,-4.982515714189132e265,-8.379963237234817,-1.0386189394002618
63,1,-8.425069189815915e265,1.0349355609338418,-0.9264340598079894
64,1,2.186289843648942e264,0.9458988115050534,-0.1706673301563417
65,1,-2.690286588146945e263,0.9787548942143798,0.10671327386458973
66,1,6.764203723164469e261,1.0267527440239774,-0.5699946628991918
67,1,3.262956206098917e261,0.7142914593803718,-0.23673951418619443
68,1,3.601894717957791e260,-0.10042211133731643,0.21753095192831745
69,1,-4.0396756190313755e260,0.540208040681167,-0.13310004527328498
70,1,-4.739229137450533e256,576.5905252924572,-9620.597650183605
71,1,-1.757237643291694e260,0.16529619047035685,0.25023360658155863
72,1,-1.6170921326180835e260,1.9500027007551943,-3.39672761356928
73,1,2.1025251462513556e260,0.789624880709897,-0.16762950396552656
74,1,-5.0123783342468355e259,-0.9865599605397052,4.451634722870747
75,1,-6.734171755795062e259,-0.2742602656172373,-0.9135725968319423
76,1,-1.929998369412086e260,0.8909616176415714,-2.359366804176029
77,1,6.969817268025885e259,1.0608859097499794,-3.4688486252845907
78,1,-6.937803116537236e258,11.130047185773515,3.3770230625374063
79,1,-6.5529833250666165e258,-4.0436848008682515,-1.0343414895421374
80,1,-2.1415597668757837e260,0.9639638627625731,-1.20975724160208
81,1,-1.2837686573265687e259,1.0359840920524566,-0.022907114300966862
82,1,4.865769950158039e257,7.500895372414614,1.9661766942376755
83,1,4.391631933240249e258,-0.08376902778578658,-0.9913782805384111
84,1,-3.1995562992088034e258,0.975683078785484,-0.9547654860406227
85,1,-2.5698636048005045e256,-3.5799153370869314,-0.09570482198805857
86,1,4.510886211380782e256,-2.1780849283099455,1.7610793832662783
87,1,-2.9782730572902714e255,-29.71435162236429,-0.22520327711639018
88,1,4.512216165692016e257,-1.4268246325141736,0.44380695441779094
89,1,-2.9286451272087397e258,-1.0335928408463813,-0.046900521516730194
90,1,-3.233399936448176e258,0.528139837682363,-3.585697510827719
91,1,-2.0981200677498468e258,1.3155616580289708,-0.16128681489879673
92,1,1.3841311369374681e258,-0.92460067848843,-0.9193302598164376
93,1,1.4254565941329127e258,-0.9730872755903576,0.6638362302667726
94,1,8.854185663686471e257,0.693433623614755,5.942781222464257
95,1,-2.930515070752602e259,-0.8842680560875674,-0.03663432542337392
96,1,4.8154231409430045e259,-0.2706999644503436,-0.15753817483847862
97,1,-6.202984351302137e259,-0.13043450872998572,0.04030115707746066
98,1,5.327807440513863e259,-0.5376454412585645,-0.622021955633496
99,1,-5.684749413693344e259,-1.3179612324929557,-1.2522349463551696
100,1,7.178738395680534e259,0.9979103690418699,-0.5304410694566734
101,1,-5.040853223336513e263,-0.9998174999030396,-0.0018588078486464468
102,1,-7.33975022556397e263,0.6016243409507679,-2.3915228566980105
103,1,-6.019095553870557e263,0.6857537069756199,-0.04559005782164057
104,1,6.286535769570145e263,-1.0343899634952007,-0.09465793913790782
105,1,2.179617676384543e264,-0.711175896924516,-1.8227338358226786
106,1,1.949476540854964e263,3.668675427369397,2.03471637362628
107,1,1.5403382106020548e263,-4.196703557648679,-1.4362536677743494
108,1,-4.068931102798506e263,-1.3038605107404626,-1.2429138867473444
109,1,1.9683170129889648e264,-1.00931347493593,1.6568677031234926
110,1,9.622806567712253e263,9.517467402387092,-29.229589055942842
111,1,1.9859285732231236e265,0.22515268404562644,-1.0448716572526517
112,1,-6.890887614301518e265,-0.1811936563436709,-0.6935259340739826
113,1,-2.702696258724679e266,-1.2679270088831294,0.11816854482227966
114,1,1.2945998432592445e267,-0.906140227435433,-0.06430194970031386
115,1,7.245675231026463e266,-0.1659231384870452,-5.499698837273395
116,1,1.0315299130002753e267,0.9041751780729184,-0.17173536540427947
117,1,-4.83402504553817e266,0.30656383258184766,-0.778272453660792
118,1,-4.4081164830280544e266,1.0032538541428748,-1.021554448393552
119,1,-6.591121007706097e264,0.0482825515677463,-6.5530603487645696
120,1,-1.3087078359066747e265,0.2554771123131366,-0.6367977827419877
121,1,7.068673761244653e264,-1.6052725631126339,-1.6196330728226225
122,1,8.834284182491337e265,-0.6235840028947309,-0.5892544429377906
123,1,-2.2413333972802566e266,-1.0000319285342494,-0.2706435440058975
124,1,1.419071986831502e267,-0.9350556623876922,-0.1251941795313314
125,1,1.6030450096995502e267,0.7009941182608889,-3.7419757368698403
126,1,7.671315230060531e267,-0.73228300482196,-0.2752951451038595
127,1,-4.041685725365476e268,-1.0494175896271212,-0.08100153059456995
128,1,-5.059090471904748e268,-0.5190816645790212,-3.455705913289546
129,1,-6.974413637990103e268,-0.044553386778603085,-0.1181048108399681
130,1,-2.536364301571931e269,-0.9135145591922323,-2.3449713794269043
131,1,-7.893221470403086e269,-0.2587473651500685,0.30495319026435325
132,1,-2.238275522296305e269,-4.070040612137319,-1.881187403245418
133,1,-2.8845108186563013e270,-1.7280452885227688,0.1539522441507808
134,1,9.540509057147222e270,-0.5964436266020459,-0.46755672439180823
135,1,-1.419736623876309e271,-1.0860663704993854,-0.5639300947362033
136,1,1.3951069932265042e271,-2.2095363644422843,-3.2742819565642636
137,1,-5.263466404966706e272,-0.803928709168275,-2.047902840012533
138,1,-3.0071820462696226e273,-0.7062816013393378,1.10540484391655
139,1,1.283609934273382e274,-1.0162630484713124,-0.038036325086382446
140,1,-4.548131743718513e274,1.744345506206305,-1.3036860803121617
141,1,1.5378630520532405e275,0.13025375974128256,-0.954740519742871
142,1,-1.87232008270093e275,-1.1666525055845436,-0.11789316630134195
143,1,1.5146183665546759e276,-0.9711630032240722,-0.21037231206525486
144,1,-2.6000068359218655e276,0.036673624385291044,0.003530636735073997
145,1,1.5103729534527786e276,0.870311332469712,-0.35108768320106754
146,1,1.1017893577282937e275,1.4012965269081146,-0.4197293448837573
147,1,-1.144622564706271e274,2.771655133767914,4.340345941632259
148,1,2.6514802534140807e274,0.9096652108232511,-1.1954981642821059
149,1,1.9957532137032e275,-1.1147490427185032,-0.224421361812562
150,1,-4.46293310224629e275,-0.5148502125244632,-0.2539089826482277
151,1,4.109780933071596e275,-0.4990701191005907,-0.8154198397036253
152,1,-1.6399269740335177e275,1.0426501608114198,-1.4649952263250552
153,1,2.30746672644178e275,-0.37744559764830987,-0.2584755507457658
154,1,-6.872305070007073e275,-0.6061417827894867,-0.22003022267925545
155,1,2.6987177007789024e276,-0.9569673163713385,-0.050956310644545984
156,1,2.937044196520764e276,-0.33261589871685215,-3.77960038390463
157,1,8.264993725684643e276,-0.5264062574624915,-0.1710645266407908
158,1,-4.3160158389645365e277,-1.0624149295358039,-0.08584840463759881
159,1,-5.245333197101904e277,-0.4561435671185629,-3.556851321416428
160,1,-5.685874726389394e277,0.4192824722310295,-0.09774067438585446
161,1,1.8634222045860867e278,-1.0531901101859218,-0.05210145737966294
162,1,2.082863748997448e278,-0.16745178682853823,-3.883329450405721
163,1,8.532899447917742e278,-0.660563634814025,-0.20287352420216054
164,1,-5.051808818831243e279,-1.0511874053902661,-0.07740182883254798
165,1,-5.140482871997705e279,-0.028652998753335542,-3.8905182697972567
166,1,-4.904137816832899e279,1.0721388906699605,-0.07982660839450569
167,1,6.899376365643784e278,1.0258823600516715,-0.3910896451575056
168,1,3.3706457777727113e277,-1.5134233967584148,3.02416942942
169,1,-9.677336479241637e277,1.8937258743711016,-2.0470519765347492
170,1,-7.48473980556676e278,-0.9833094215043173,-0.22616994415772537
171,1,4.649434959002073e279,-1.0243261373026986,-0.07813137964878081
172,1,4.591100307785888e279,0.052710946670817424,-3.9472353732367518
173,1,4.527975909708198e279,1.0693231540481345,-0.06911470302533249
174,1,-9.817899856456501e278,0.29696639468670993,-0.29395071047684795
175,1,2.687770003107284e279,-1.0831071237816314,-0.05333085756309485
176,1,2.7196871026062493e279,-0.003585609044550024,-3.9541743105452456
177,1,2.717227136238187e279,1.0507127795484732,-0.07697234031722808
178,1,-4.566252834982545e278,0.6627700997228954,-0.20039320770378571
179,1,-1.1010989177087209e278,0.22707659828056517,-3.8879110821535723
180,1,-9.640044110429415e277,1.0492636576494414,-0.039099323453145866
181,1,1.8213679730634754e277,0.6922494994623728,-0.3648531278477775
182,1,1.667339108238736e276,0.9428695826136612,-1.917955507058802
183,1,3.219453531388143e274,28.102162502849932,-7.736005601701076
184,1,4.177403604867271e275,-0.5661081644284616,-0.08221732061715056
185,1,-6.788522695763904e275,0.8250354494409666,-1.2295098482648343
186,1,1.0245437264007716e276,-1.4307595281693335,-0.4673361310565645
187,1,2.5004654680910038e278,-0.999456221034957,-0.22487532120109457
188,1,3.3048879226831975e278,-0.6879692372397485,-1.373799683083397
189,1,1.4935153653426083e279,-0.9171048579524199,-0.2817775647857432
190,1,1.3114168560009445e279,1.2727362733293845,-2.2822431573399187
191,1,1.439280014035921e279,1.166994754718288,-0.10229532798178383
192,1,-1.45380848800272e279,1.0464811268279723,-2.1558880470887587
193,1,-4.81593253730176e279,-1.2301035313741968,0.7591865312452725
194,1,9.664255197608484e279,-0.31607215636524555,-0.2907953600333914
195,1,-2.971557251726857e280,-1.3889979737164944,-0.01566194533363854
196,1,3.080202006037468e281,-1.108555637480149,-0.09846592869469485
197,1,3.4776924522858655e281,-0.09408614286615419,-3.8654063872857933
198,1,3.3808240331372246e281,1.0583617864474824,-0.08345779941200851
199,1,-5.9048861624614604e280,0.6806174784183769,-0.180120662224914
200,1,-1.4083910384625033e280,0.6089144877409068,-3.8812490345157795
201,1,-1.047989409622954e280,1.5756265218876495,0.13871072269987325
1,2,-2.139188245925814e272,-0.24014502201889523,0.22807427532312477
2,2,2.0082898624165636e271,-2.582162317685658,1.527387494229706
3,2,2.1579565986705967e272,-0.013281727073539678,0.9810193503869672
4,2,7.820949335154145e271,0.8937079994167303,0.7988861391867531
5,2,-1.8447329389098677e271,0.7625428686413416,-0.6722796853746517
6,2,1.6017334427486542e270,-2.6208615727991544,-1.1086978636108555
7,2,2.8365533057764215e271,-0.6157425255253205,-0.7785603471195299
8,2,-1.6664614871991544e272,-0.8617546139093174,0.7412082264423372
9,2,-5.848202874096477e272,-0.0027910879810145585,0.9346147243122223
10,2,-1.5492882101709225e272,0.8823865848874116,0.761325064626324
11,2,2.2628173627624352e271,0.4191985898481401,-0.650789598245294
12,2,2.741202017154568e271,0.20678234440285767,0.8020422967867367
13,2,4.800742701515342e270,0.9057703277857143,0.8068059030026786
14,2,-1.1564110710292369e270,-0.2827231760026123,-0.8257568541577133
15,2,-1.4553185419721274e270,-0.4165678000662219,-1.2327825032412951
16,2,1.035306903398241e271,-0.8950937047893247,0.7972433521568638
17,2,5.8945200352315774e271,-0.21143142444172908,0.765529006768263
18,2,5.116927917540436e271,-0.4412030245357316,-0.6056051539056031
19,2,-3.576294860658361e272,-0.8689785139061782,0.7423200523860322
20,2,-1.2569722439242106e273,0.002791572980654197,0.9128221001516944
21,2,-3.279783058506706e272,0.878272825174812,0.7420105894771236
22,2,4.611885799078915e271,0.38634217831602213,-0.6635330708321785
23,2,5.677216762899866e271,0.2164705961481422,0.8410061122348447
24,2,1.3193918689755592e271,0.7828431546105292,0.6765099950408934
25,2,-4.786485970909907e270,-0.5095725379149256,-0.40910992193700374
26,2,5.517284269051343e270,-0.17090900626321157,-0.05730475787120709
27,2,-6.98253639147216e268,4.752335253641723,14.997936371157314
28,2,8.130923885765196e270,-0.3348068239327601,-0.1793918904562758
29,2,-7.295227104797757e270,-1.035363751304637,0.5712590582117633
30,2,-2.24001001302093e271,-0.3361443019172705,-0.4121091757967545
31,2,6.2528119982628656e271,-0.9658780299772665,0.47893690563963337
32,2,5.087920457950957e272,0.08406910390694357,0.9645145178493196
33,2,3.249912405083165e272,0.09102590574306668,0.8416147920382417
34,2,1.8051305934752144e273,-0.8412253347281653,-0.1739687672458379
35,2,-8.350167953950644e273,-0.48632699561906884,0.5000867932771833
36,2,-5.839084267123034e273,0.40817414142474384,1.251715300233496
37,2,-4.833101424054447e273,-0.2362174553251161,-0.0193072307336157
38,2,2.1806893884483435e273,0.10518684336323503,1.4602146159002964
39,2,5.388959316997922e273,-0.1688720118415294,0.6321074164623073
40,2,1.2789334863061678e272,1.2960691018741497,0.9691060587931823
41,2,-6.925141865455031e272,-0.24228201681030553,-0.1371372285912573
42,2,8.822522335458623e271,1.7284155838954833,0.19436925663862223
43,2,6.27065157197603e271,0.6826792582416056,0.1253449017159218
44,2,-3.7196726365006554e271,0.47298366036633327,0.14622774458399276
45,2,1.0435689345245887e271,-1.796869803243079,-2.005465615094579
46,2,-3.515082313994824e271,-0.0026992659997683716,2.3415395334192763
47,2,-3.172058928979472e271,0.9110654305003913,1.048823147235379
48,2,3.288864747414779e270,0.6813523698008189,-0.5310638628610611
49,2,1.3192050522038222e269,4.547400936270038,1.2592193025816376
50,2,6.36757184548214e269,0.9461161619656524,-0.19857679493348906
51,2,-4.8733951799687844e268,1.0834016527573709,-0.26454209807194123
52,2,-3.529492423056186e267,0.9539826891249026,0.3784032579465783
53,2,1.2646874090042194e268,0.45309293496074,-0.6539395151958696
54,2,4.705258138539113e266,3.918693339435036,-4.2920363051058805
55,2,7.975642928455245e266,-0.12245757132963814,-0.3297258391341203
56,2,-4.1993383733419294e266,0.4792501716275255,-0.648904455496539
57,2,5.127450459709644e265,2.8205514310510584,1.3725390958780097
58,2,6.465685603864684e264,0.8770849633724919,2.8995362166943845
59,2,-1.728320519443214e267,-1.0135667981332852,-0.4920703642887697
60,2,1.6725158697171322e267,-0.07849278988271216,-0.2970767876129109
61,2,3.867749478696216e266,0.09007409413312016,-1.9239040442818145
62,2,1.059029086488634e267,0.12176516723693459,-0.46458276741126825
63,2,-1.330094638079446e267,0.9963331083288682,-0.6380194303335587
64,2,-2.1017186636818288e264,0.5542584678171404,0.593198580914894
65,2,-2.2912610425773656e263,0.984249276228917,0.8369420348990432
66,2,2.6191352631086524e262,1.1925504444206516,-0.3366276213126985
67,2,5.514421684838767e261,0.8796577171615577,-0.40364376414018216
68,2,8.293299218694517e260,1.1902704437281508,-0.10317295102820817
69,2,-1.138489404315125e261,1.101314219352024,-0.20191116904673975
70,2,1.2047796361656428e260,0.8179547391570429,1.474669137060735
71,2,2.396460439991052e260,-1.0464602405466363,1.0817080818412008
72,2,6.310838862895542e259,0.795996459665915,1.0360910595142125
73,2,-8.781835470047997e259,-0.7229424691161545,0.7461904366206661
74,2,5.13312753134738e259,0.49943234653720003,-3.1606799529817313
75,2,4.2822229234949806e260,-0.3997915783596763,0.22101349346664564
76,2,-1.0650725118889653e260,-0.9125133649362113,-0.8551259740751502
77,2,1.2044000270691392e259,5.483833551243725,-4.657637681317179
78,2,-1.1876383482957996e260,-1.5495871063444688,-0.15708644506981495
79,2,6.832636092217742e260,0.006655255701134064,0.022078144503477722
80,2,-1.2414107092102335e260,1.2581131747959513,-0.27080489745996256
81,2,4.2972943508520186e258,0.7137695143810479,0.5795224641037354
82,2,-8.283712415596696e258,-1.281954523239231,0.05748991302238691
83,2,1.9239618039568536e259,-0.022076484609559126,-0.021980940729875054
84,2,-9.504741291172469e258,0.943646499103646,0.009312701281517191
85,2,-3.496974885189366e256,0.8728086389318143,-5.5375531600188435
86,2,-2.030415895842499e257,0.9713475908581263,-0.6578846471441652
87,2,-1.0036884295814834e257,-1.4197643937490498,-0.5997106232186531
88,2,-1.983287936865963e257,-2.769794416581488,-2.22629832418404
89,2,3.103431909838771e258,-0.8234761322451812,0.6576908392442621
90,2,6.302390332682689e258,0.04001970490413486,0.9466499719593298
91,2,4.0357497116114144e257,2.9106697823579584,1.3746460133005
92,2,3.4520173200476826e258,-0.799262895021803,-0.29894816777488736
93,2,-2.93317812836437e258,-0.9355207600078237,-0.43728013370720703
94,2,-1.438641734803349e259,-0.31668693726321884,-1.1546084707999718
95,2,9.155109271010298e258,1.0915204759574415,-1.5127087967669328
96,2,4.0292065639438457e259,0.07995300757049834,-0.08049295649434934
97,2,-8.411819496545889e259,-0.28906852507795416,0.13757392066734198
98,2,-3.9678305658051564e259,-3.54763844981533,-2.845011306323459
99,2,-6.521753355487773e260,0.20052335138701965,-1.1321461423307222
100,2,9.700741143701639e259,-5.596292955329547,-1.0872038280665095
101,2,5.180386823684203e263,-1.0090191744529888,1.0266036771245108
102,2,1.1365396619973535e264,-0.015133618154374244,0.9896100761467967
103,2,1.3198163836044379e263,0.38103525145184625,0.3249163031239138
104,2,-4.020208696776683e263,-0.902353271473595,0.6340329694152067
105,2,4.834125135445961e263,-3.976779094826935,-2.6147072997018634
106,2,-6.275900783275745e264,0.028753578444044144,0.03127604193482628
107,2,1.8824775087318264e264,0.9553798093627587,-0.05498883648169615
108,2,-4.578314533815642e263,0.18414778805765175,0.1699858287694007
109,2,-1.8282781018154792e264,-1.2966269253535594,4.115321983035772
110,2,-1.4144939869954435e265,-0.2743140458397257,1.48156543194635
111,2,4.35007131589871e265,-1.5799445124884364,0.7009686505766018
112,2,3.608430539865316e265,0.11295728266802617,0.48052369087811675
113,2,-2.4484883482742257e265,2.453737076192025,2.2546934750876417
114,2,-5.261000588812143e266,-0.9861610087018552,0.6668040693411647
115,2,-2.2930569669339147e267,0.019082350654559415,0.8942064052169445
116,2,-5.649308690762512e266,0.8396680705378355,0.6945103606269613
117,2,1.5245916517926907e267,0.055413987009701994,-0.04778949324442396
118,2,1.671022279829443e265,0.596252796022877,0.04360931094890431
119,2,1.1911178763463675e265,-0.9725306661002766,0.63458482138281
120,2,1.923609930648614e265,0.9403103857124696,0.6858861953224032
121,2,3.0348533292933328e265,-1.434701394258793,0.7367585857700472
122,2,-3.133193556551366e265,0.16208580518155483,0.2727866053047843
123,2,4.8505574896974015e266,-1.2807467013746825,-0.8095689889502143
124,2,6.262461122630241e267,-0.8644127479209587,-1.4090146574917202
125,2,3.6274553384662366e268,0.02124946586129443,-1.185522919076692
126,2,1.0829092499427105e268,1.3684868836310793,-0.944127393052802
127,2,1.36977834272011e268,-1.2656177147535264,0.9359381554615248
128,2,1.0198979824663598e269,-0.05814185252597789,0.8827249442767392
129,2,4.640574489024553e268,0.38470430883630286,0.22397602422787294
130,2,-3.28525351071327e269,-0.9013623624042444,0.6561744520997588
131,2,1.723987585130681e270,-0.04341508343863638,-0.46967419914639386
132,2,1.2307624219625513e268,42.66814336660374,-29.6112862733645
133,2,-1.853402348922008e271,-0.6349145324716953,-0.015800272359214853
134,2,1.2835017532210898e271,-0.5851388768127114,-0.05078229999400516
135,2,2.8218605865784496e271,-1.2306057487759314,0.0917459879764588
136,2,2.5661788602192805e272,-0.9462737554713282,0.28791417146232845
137,2,-4.068557387079421e272,-0.9437627382217384,-1.6049922481236867
138,2,-2.889013284740125e274,-1.0659423440944196,0.012365948263465687
139,2,8.140680878383276e274,-0.48332466351155995,0.4413233469387323
140,2,-7.860475125503479e273,-3.897209993990513,7.956066031334553
141,2,-1.4023851481640297e275,-0.2181541474301076,0.24859081563054441
142,2,3.058449421273795e273,-7.110105452323292,-9.802273094814899
143,2,2.431215116625283e275,-1.1605831228831627,1.2605801837977637
144,2,-1.0126709429496451e276,0.08620601761616137,0.8402020385851314
145,2,1.543128128350158e275,3.0562479893463617,0.7473678315823662
146,2,-2.0825402737519475e275,0.21793914019363803,0.40005863566543803
147,2,2.9463554172762445e274,0.4864734541434028,0.2536487319030504
148,2,-1.4765424150865392e274,2.812325115336718,1.0100997130234182
149,2,7.562977755966702e274,-0.20729503236996946,-0.935960687867281
150,2,-4.2412984317842344e273,0.6551652655509868,26.076924582095764
151,2,6.207040696526559e275,0.07710657262202797,0.06906494410059401
152,2,-2.4754988199872984e275,1.5042643862262057,1.3237644312647066
153,2,2.9848637178028305e275,0.16771506602251116,0.1366585149623852
154,2,-1.707784418040987e275,1.5864109529173973,1.8079412216850865
155,2,-1.1909455632353888e276,-0.9635769153475501,0.7079997130281513
156,2,-6.812677948529128e276,-0.10584470020393427,0.9003434848657831
157,2,-5.097638228977908e276,-0.4801993187198288,-0.7176681607478671
158,2,-4.038306003714707e276,5.8260539507272515,-8.795225419368965
159,2,4.664391865958999e277,-0.37536460848102327,3.3268485317894325
160,2,-1.379986785987732e276,11.099732895672414,-46.06633560504411
161,2,-1.0456832003446415e278,-0.771646105183146,0.7609692471061602
162,2,-5.301814095041314e278,-0.19475513970476405,0.7958401591861746
163,2,-4.265898184419593e278,-0.41637024540777595,-0.6406200637535792
164,2,3.0866530801223316e279,-0.873629256774387,0.7413307202448415
165,2,1.1390194596721517e280,0.002444444833227414,0.9165540985695617
166,2,3.197015469913632e279,0.8767268203711028,0.743239744192158
167,2,-5.452442722012014e278,0.6094279181807789,-0.6915691668981188
168,2,1.842138181649107e277,-14.028305155694152,7.848417572978226
169,2,8.434634077134004e277,-0.9706556865909103,0.7215979644305247
170,2,3.978249725846646e278,-0.8572346740950058,-0.9924973903826747
171,2,-2.955889443994279e279,-0.8749520024538887,0.7427874024613178
172,2,-1.0322722416925407e280,0.002264168643500692,0.9165699297710197
173,2,-2.6590484561715785e279,0.9188852487950371,0.7525826378890252
174,2,5.666723362358468e278,0.15257651576687645,-1.002632863767405
175,2,-1.6343690875686996e279,-0.9627324233400283,0.7670139716152384
176,2,-6.114469400223703e279,-0.004696954721375509,0.9170903205974953
177,2,-1.6823234864293162e279,0.8712353285183495,0.741277192092171
178,2,2.3022575571325988e278,0.41431584789925524,-0.6240083481563812
179,2,2.810606651483768e278,0.20722500760422122,0.7966353664585255
180,2,3.441967437572626e277,1.5975531549942559,1.4218231690086818
181,2,-3.601587693614525e277,0.11462495976289382,-0.8247447300813784
182,2,-5.726243402832359e276,0.9621990062582452,-0.09530179664868807
183,2,3.192453267649146e275,4.480124911318659,-0.4953655064841199
184,2,8.839293114970935e275,-0.3733962964380628,-0.005679374706127147
185,2,1.669472900037768e275,3.5934700227769896,2.197386944839471
186,2,-2.0736697607836608e276,-0.0779436275310724,-1.3601239345760805
187,2,-1.3724617531899832e278,-1.0079288720859296,0.180657089306975
188,2,-3.7845376888896536e278,0.376668428502152,0.5903223430038835
189,2,1.2404202642107638e279,-1.0554612504688354,-0.7554259374371703
190,2,-7.63756582043671e279,-0.20744404154648838,0.3030458515028928
191,2,2.586336334938097e279,-0.8943586770321995,0.49293468477042857
192,2,-1.2457147396265047e278,0.5567634172960398,-13.174705360011055
193,2,-7.074073635928869e279,-0.9836654340333539,1.1463967296994142
194,2,-1.1286957179513551e279,4.856704226489121,-12.102866289886045
195,2,-1.2030398520041533e280,1.4822650099643648,1.1686624610317857
196,2,-1.877439927635623e281,-0.8702565313574994,0.7483902971373462
197,2,-7.658355500749424e281,-0.0018096204277717285,0.9044742164493236
198,2,-2.4116001873764236e281,0.8395010718717194,0.7159179286510181
199,2,3.3963371396269333e280,0.40635393196176706,-0.4966893451875723
200,2,3.5346399131831948e280,0.20083074761898476,0.7975765243510062
201,2,3.5614206871550044e279,1.4668641816870667,1.155431356210812
1,3,9.718790103319337e271,-0.0423456971768796,0.9319368655290585
2,3,-3.7909476719653104e271,0.11482148397307973,0.7769757117354895
3,3,-1.9990027565417983e271,-0.039679240406007496,0.7977609177183226
4,3,-2.3741510732470896e271,0.7461624804745257,1.2554267166292747
5,3,-5.700229758366302e270,-0.40070082709891003,-0.1437822064768004
6,3,2.3056649835974886e270,3.7284140905365355,-0.8400133757958251
7,3,-4.254087287132065e270,-0.8361942825825649,-0.45157986208599166
8,3,6.522333402019293e271,-0.5925776562024391,0.9506729858252123
9,3,5.2697781377562225e271,0.033652353508986495,0.9293875731210934
10,3,7.059975738497408e271,0.5022874810424743,0.9039959318036783
11,3,-9.059171435875403e270,0.8224027028881904,-0.049737678471757925
12,3,-6.56009292607542e270,0.5895622050913771,0.7986231250972737
13,3,-2.650713579148834e270,0.4503843282919268,1.09185524590478
14,3,8.119872368364512e269,-0.1326846897006471,0.3765297787032582
15,3,1.4045973831452433e270,-0.39165790798087957,0.10601228894494395
16,3,-5.682721627997052e270,-0.5707958882261945,1.0384966112741476
17,3,-1.5177882116608906e271,-0.5474161726575854,0.7949360985731244
18,3,-1.4619379744004262e271,-0.6075869647147162,-0.22919450973728742
19,3,1.7064016903235723e272,-0.47849563244501697,0.8339233410899064
20,3,1.2761762594977907e272,0.016491772284148477,0.8487797883566024
21,3,1.5837829615859895e272,0.5141677716508656,0.8454020624922524
22,3,-1.2809718209356368e271,0.7981390181273709,-0.12945825777260248
23,3,-1.1108593273177506e271,0.6976823277876772,1.0520016090392423
24,3,-5.714774192587412e270,0.4644025643547606,0.8446372180341368
25,3,-1.800236572976085e270,-0.47361546411754835,0.591831114830409
26,3,3.4359735731819796e270,-0.31741969336436526,0.33066994056998356
27,3,-6.912977355604068e268,59.84011439546592,53.791363982742226
28,3,-8.659902118620473e270,-0.3420936338255717,-0.809983695133308
29,3,1.2173993631884237e271,-0.9844001608157753,0.1316724820580051
30,3,-1.2260476028717043e271,1.2880172478118164,-0.15610257655590398
31,3,-7.43357322498525e271,-0.45456632196640284,0.3576234697048675
32,3,-7.253936428528375e271,0.11195975064095785,0.8611034897024471
33,3,-2.893343838326204e272,-0.6337252147231386,0.5689808277459716
34,3,-3.2429371992173363e272,-0.08159565125169005,1.0457130119719162
35,3,3.2170605753186066e273,0.02669375120784644,1.5037031401048682
36,3,6.2305773467688975e273,-0.20036761945395126,0.5082494603258362
37,3,3.756265570520527e273,0.11361886112253627,0.4678035057200252
38,3,1.3050226849556425e273,0.9077948344297266,-0.7928133023375867
39,3,-1.8577804201832084e273,0.3546579801818102,0.8375870595786377
40,3,5.351053396338078e271,-8.827802074410492,3.406792197743539
41,3,-7.608971110158721e271,3.685080319990885,-1.9518103833318319