TITLE="BGK Re = 100.0"
VARIABLES = X,Y,Rho,U,V
ZONE
I = 201	J = 101
F=POINT
1,1,NaN,NaN,NaN
2,1,NaN,NaN,NaN
3,1,NaN,NaN,NaN
4,1,NaN,NaN,NaN
5,1,NaN,NaN,NaN
6,1,NaN,NaN,NaN
7,1,NaN,NaN,NaN
8,1,NaN,NaN,NaN
9,1,NaN,NaN,NaN
10,1,NaN,NaN,NaN
11,1,NaN,NaN,NaN
12,1,NaN,NaN,NaN
13,1,NaN,NaN,NaN
14,1,NaN,NaN,NaN
15,1,NaN,NaN,NaN
16,1,NaN,NaN,NaN
17,1,NaN,NaN,NaN
18,1,NaN,NaN,NaN
19,1,NaN,NaN,NaN
20,1,NaN,NaN,NaN
21,1,NaN,NaN,NaN
22,1,NaN,NaN,NaN
23,1,NaN,NaN,NaN
24,1,NaN,NaN,NaN
25,1,NaN,NaN,NaN
26,1,NaN,NaN,NaN
27,1,NaN,NaN,NaN
28,1,NaN,NaN,NaN
29,1,NaN,NaN,NaN
30,1,NaN,NaN,NaN
31,1,NaN,NaN,NaN
32,1,NaN,NaN,NaN
33,1,NaN,NaN,NaN
34,1,NaN,NaN,NaN
35,1,NaN,NaN,NaN
36,1,NaN,NaN,NaN
37,1,NaN,NaN,NaN
38,1,NaN,NaN,NaN
39,1,NaN,NaN,NaN
40,1,NaN,NaN,NaN
41,1,NaN,NaN,NaN
42,1,NaN,NaN,NaN
43,1,NaN,NaN,NaN
44,1,NaN,NaN,NaN
45,1,NaN,NaN,NaN
46,1,NaN,NaN,NaN
47,1,NaN,NaN,NaN
48,1,NaN,NaN,NaN
49,1,NaN,NaN,NaN
50,1,NaN,NaN,NaN
51,1,NaN,NaN,NaN
52,1,NaN,NaN,NaN
53,1,NaN,NaN,NaN
54,1,NaN,NaN,NaN
55,1,NaN,NaN,NaN
56,1,NaN,NaN,NaN
57,1,NaN,NaN,NaN
58,1,NaN,NaN,NaN
59,1,NaN,NaN,NaN
60,1,NaN,NaN,NaN
61,1,NaN,NaN,NaN
62,1,NaN,NaN,NaN
63,1,NaN,NaN,NaN
64,1,NaN,NaN,NaN
65,1,NaN,NaN,NaN
66,1,NaN,NaN,NaN
67,1,NaN,NaN,NaN
68,1,NaN,NaN,NaN
69,1,NaN,NaN,NaN
70,1,NaN,NaN,NaN
71,1,NaN,NaN,NaN
72,1,NaN,NaN,NaN
73,1,NaN,NaN,NaN
74,1,NaN,NaN,NaN
75,1,NaN,NaN,NaN
76,1,NaN,NaN,NaN
77,1,NaN,NaN,NaN
78,1,NaN,NaN,NaN
79,1,NaN,NaN,NaN
80,1,NaN,NaN,NaN
81,1,NaN,NaN,NaN
82,1,NaN,NaN,NaN
83,1,NaN,NaN,NaN
84,1,NaN,NaN,NaN
85,1,NaN,NaN,NaN
86,1,NaN,NaN,NaN
87,1,NaN,NaN,NaN
88,1,NaN,NaN,NaN
89,1,NaN,NaN,NaN
90,1,NaN,NaN,NaN
91,1,NaN,NaN,NaN
92,1,NaN,NaN,NaN
93,1,NaN,NaN,NaN
94,1,NaN,NaN,NaN
95,1,NaN,NaN,NaN
96,1,NaN,NaN,NaN
97,1,NaN,NaN,NaN
98,1,NaN,NaN,NaN
99,1,NaN,NaN,NaN
100,1,NaN,NaN,NaN
101,1,NaN,NaN,NaN
102,1,NaN,NaN,NaN
103,1,NaN,NaN,NaN
104,1,NaN,NaN,NaN
105,1,NaN,NaN,NaN
106,1,NaN,NaN,NaN
107,1,NaN,NaN,NaN
108,1,NaN,NaN,NaN
109,1,NaN,NaN,NaN
110,1,NaN,NaN,NaN
111,1,NaN,NaN,NaN
112,1,NaN,NaN,NaN
113,1,NaN,NaN,NaN
114,1,NaN,NaN,NaN
115,1,NaN,NaN,NaN
116,1,NaN,NaN,NaN
117,1,NaN,NaN,NaN
118,1,NaN,NaN,NaN
119,1,NaN,NaN,NaN
120,1,NaN,NaN,NaN
121,1,NaN,NaN,NaN
122,1,NaN,NaN,NaN
123,1,NaN,NaN,NaN
124,1,NaN,NaN,NaN
125,1,NaN,NaN,NaN
126,1,NaN,NaN,NaN
127,1,NaN,NaN,NaN
128,1,NaN,NaN,NaN
129,1,NaN,NaN,NaN
130,1,NaN,NaN,NaN
131,1,NaN,NaN,NaN
132,1,NaN,NaN,NaN
133,1,NaN,NaN,NaN
134,1,NaN,NaN,NaN
135,1,NaN,NaN,NaN
136,1,NaN,NaN,NaN
137,1,NaN,NaN,NaN
138,1,NaN,NaN,NaN
139,1,NaN,NaN,NaN
140,1,NaN,NaN,NaN
141,1,NaN,NaN,NaN
142,1,NaN,NaN,NaN
143,1,NaN,NaN,NaN
144,1,NaN,NaN,NaN
145,1,NaN,NaN,NaN
146,1,NaN,NaN,NaN
147,1,NaN,NaN,NaN
148,1,NaN,NaN,NaN
149,1,NaN,NaN,NaN
150,1,NaN,NaN,NaN
151,1,NaN,NaN,NaN
152,1,NaN,NaN,NaN
153,1,NaN,NaN,NaN
154,1,NaN,NaN,NaN
155,1,NaN,NaN,NaN
156,1,NaN,NaN,NaN
157,1,NaN,NaN,NaN
158,1,NaN,NaN,NaN
159,1,NaN,NaN,NaN
160,1,NaN,NaN,NaN
161,1,NaN,NaN,NaN
162,1,NaN,NaN,NaN
163,1,NaN,NaN,NaN
164,1,NaN,NaN,NaN
165,1,NaN,NaN,NaN
166,1,NaN,NaN,NaN
167,1,NaN,NaN,NaN
168,1,NaN,NaN,NaN
169,1,NaN,NaN,NaN
170,1,NaN,NaN,NaN
171,1,NaN,NaN,NaN
172,1,NaN,NaN,NaN
173,1,NaN,NaN,NaN
174,1,NaN,NaN,NaN
175,1,NaN,NaN,NaN
176,1,NaN,NaN,NaN
177,1,NaN,NaN,NaN
178,1,NaN,NaN,NaN
179,1,NaN,NaN,NaN
180,1,NaN,NaN,NaN
181,1,NaN,NaN,NaN
182,1,NaN,NaN,NaN
183,1,NaN,NaN,NaN
184,1,NaN,NaN,NaN
185,1,NaN,NaN,NaN
186,1,NaN,NaN,NaN
187,1,NaN,NaN,NaN
188,1,NaN,NaN,NaN
189,1,NaN,NaN,NaN
190,1,NaN,NaN,NaN
191,1,NaN,NaN,NaN
192,1,NaN,NaN,NaN
193,1,NaN,NaN,NaN
194,1,NaN,NaN,NaN
195,1,NaN,NaN,NaN
196,1,NaN,NaN,NaN
197,1,NaN,NaN,NaN
198,1,NaN,NaN,NaN
199,1,NaN,NaN,NaN
200,1,NaN,NaN,NaN
201,1,NaN,NaN,NaN
1,2,NaN,NaN,NaN
2,2,NaN,NaN,NaN
3,2,NaN,NaN,NaN
4,2,NaN,NaN,NaN
5,2,NaN,NaN,NaN
6,2,NaN,NaN,NaN
7,2,NaN,NaN,NaN
8,2,NaN,NaN,NaN
9,2,NaN,NaN,NaN
10,2,NaN,NaN,NaN
11,2,NaN,NaN,NaN
12,2,NaN,NaN,NaN
13,2,NaN,NaN,NaN
14,2,NaN,NaN,NaN
15,2,NaN,NaN,NaN
16,2,NaN,NaN,NaN
17,2,NaN,NaN,NaN
18,2,NaN,NaN,NaN
19,2,NaN,NaN,NaN
20,2,NaN,NaN,NaN
21,2,NaN,NaN,NaN
22,2,NaN,NaN,NaN
23,2,NaN,NaN,NaN
24,2,NaN,NaN,NaN
25,2,NaN,NaN,NaN
26,2,NaN,NaN,NaN
27,2,NaN,NaN,NaN
28,2,NaN,NaN,NaN
29,2,NaN,NaN,NaN
30,2,NaN,NaN,NaN
31,2,NaN,NaN,NaN
32,2,NaN,NaN,NaN
33,2,NaN,NaN,NaN
34,2,NaN,NaN,NaN
35,2,NaN,NaN,NaN
36,2,NaN,NaN,NaN
37,2,NaN,NaN,NaN
38,2,NaN,NaN,NaN
39,2,NaN,NaN,NaN
40,2,NaN,NaN,NaN
41,2,NaN,NaN,NaN
42,2,NaN,NaN,NaN
43,2,NaN,NaN,NaN
44,2,NaN,NaN,NaN
45,2,NaN,NaN,NaN
46,2,NaN,NaN,NaN
47,2,NaN,NaN,NaN
48,2,NaN,NaN,NaN
49,2,NaN,NaN,NaN
50,2,NaN,NaN,NaN
51,2,NaN,NaN,NaN
52,2,NaN,NaN,NaN
53,2,NaN,NaN,NaN
54,2,NaN,NaN,NaN
55,2,NaN,NaN,NaN
56,2,NaN,NaN,NaN
57,2,NaN,NaN,NaN
58,2,NaN,NaN,NaN
59,2,NaN,NaN,NaN
60,2,NaN,NaN,NaN
61,2,NaN,NaN,NaN
62,2,NaN,NaN,NaN
63,2,NaN,NaN,NaN
64,2,NaN,NaN,NaN
65,2,NaN,NaN,NaN
66,2,NaN,NaN,NaN
67,2,NaN,NaN,NaN
68,2,NaN,NaN,NaN
69,2,NaN,NaN,NaN
70,2,NaN,NaN,NaN
71,2,NaN,NaN,NaN
72,2,NaN,NaN,NaN
73,2,NaN,NaN,NaN
74,2,NaN,NaN,NaN
75,2,NaN,NaN,NaN
76,2,NaN,NaN,NaN
77,2,NaN,NaN,NaN
78,2,NaN,NaN,NaN
79,2,NaN,NaN,NaN
80,2,NaN,NaN,NaN
81,2,NaN,NaN,NaN
82,2,NaN,NaN,NaN
83,2,NaN,NaN,NaN
84,2,NaN,NaN,NaN
85,2,NaN,NaN,NaN
86,2,NaN,NaN,NaN
87,2,NaN,NaN,NaN
88,2,NaN,NaN,NaN
89,2,NaN,NaN,NaN
90,2,NaN,NaN,NaN
91,2,NaN,NaN,NaN
92,2,NaN,NaN,NaN
93,2,NaN,NaN,NaN
94,2,NaN,NaN,NaN
95,2,NaN,NaN,NaN
96,2,NaN,NaN,NaN
97,2,NaN,NaN,NaN
98,2,NaN,NaN,NaN
99,2,NaN,NaN,NaN
100,2,NaN,NaN,NaN
101,2,NaN,NaN,NaN
102,2,NaN,NaN,NaN
103,2,NaN,NaN,NaN
104,2,NaN,NaN,NaN
105,2,NaN,NaN,NaN
106,2,NaN,NaN,NaN
107,2,NaN,NaN,NaN
108,2,NaN,NaN,NaN
109,2,NaN,NaN,NaN
110,2,NaN,NaN,NaN
111,2,NaN,NaN,NaN
112,2,NaN,NaN,NaN
113,2,NaN,NaN,NaN
114,2,NaN,NaN,NaN
115,2,NaN,NaN,NaN
116,2,NaN,NaN,NaN
117,2,NaN,NaN,NaN
118,2,NaN,NaN,NaN
119,2,NaN,NaN,NaN
120,2,NaN,NaN,NaN
121,2,NaN,NaN,NaN
122,2,NaN,NaN,NaN
123,2,NaN,NaN,NaN
124,2,NaN,NaN,NaN
125,2,NaN,NaN,NaN
126,2,NaN,NaN,NaN
127,2,NaN,NaN,NaN
128,2,NaN,NaN,NaN
129,2,NaN,NaN,NaN
130,2,NaN,NaN,NaN
131,2,NaN,NaN,NaN
132,2,NaN,NaN,NaN
133,2,NaN,NaN,NaN
134,2,NaN,NaN,NaN
135,2,NaN,NaN,NaN
136,2,NaN,NaN,NaN
137,2,NaN,NaN,NaN
138,2,NaN,NaN,NaN
139,2,NaN,NaN,NaN
140,2,NaN,NaN,NaN
141,2,NaN,NaN,NaN
142,2,NaN,NaN,NaN
143,2,NaN,NaN,NaN
144,2,NaN,NaN,NaN
145,2,NaN,NaN,NaN
146,2,NaN,NaN,NaN
147,2,NaN,NaN,NaN
148,2,NaN,NaN,NaN
149,2,NaN,NaN,NaN
150,2,NaN,NaN,NaN
151,2,NaN,NaN,NaN
152,2,NaN,NaN,NaN
153,2,NaN,NaN,NaN
154,2,NaN,NaN,NaN
155,2,NaN,NaN,NaN
156,2,NaN,NaN,NaN
157,2,NaN,NaN,NaN
158,2,NaN,NaN,NaN
159,2,NaN,NaN,NaN
160,2,NaN,NaN,NaN
161,2,NaN,NaN,NaN
162,2,NaN,NaN,NaN
163,2,NaN,NaN,NaN
164,2,NaN,NaN,NaN
165,2,NaN,NaN,NaN
166,2,NaN,NaN,NaN
167,2,NaN,NaN,NaN
168,2,NaN,NaN,NaN
169,2,NaN,NaN,NaN
170,2,NaN,NaN,NaN
171,2,NaN,NaN,NaN
172,2,NaN,NaN,NaN
173,2,NaN,NaN,NaN
174,2,NaN,NaN,NaN
175,2,NaN,NaN,NaN
176,2,NaN,NaN,NaN
177,2,NaN,NaN,NaN
178,2,NaN,NaN,NaN
179,2,NaN,NaN,NaN
180,2,NaN,NaN,NaN
181,2,NaN,NaN,NaN
182,2,NaN,NaN,NaN
183,2,NaN,NaN,NaN
184,2,NaN,NaN,NaN
185,2,NaN,NaN,NaN
186,2,NaN,NaN,NaN
187,2,NaN,NaN,NaN
188,2,NaN,NaN,NaN
189,2,NaN,NaN,NaN
190,2,NaN,NaN,NaN
191,2,NaN,NaN,NaN
192,2,NaN,NaN,NaN
193,2,NaN,NaN,NaN
194,2,NaN,NaN,NaN
195,2,NaN,NaN,NaN
196,2,NaN,NaN,NaN
197,2,NaN,NaN,NaN
198,2,NaN,NaN,NaN
199,2,NaN,NaN,NaN
200,2,NaN,NaN,NaN
201,2,NaN,NaN,NaN
1,3,NaN,NaN,NaN
2,3,NaN,NaN,NaN
3,3,NaN,NaN,NaN
4,3,NaN,NaN,NaN
5,3,NaN,NaN,NaN
6,3,NaN,NaN,NaN
7,3,NaN,NaN,NaN
8,3,NaN,NaN,NaN
9,3,NaN,NaN,NaN
10,3,NaN,NaN,NaN
11,3,NaN,NaN,NaN
12,3,NaN,NaN,NaN
13,3,NaN,NaN,NaN
14,3,NaN,NaN,NaN
15,3,NaN,NaN,NaN
16,3,NaN,NaN,NaN
17,3,NaN,NaN,NaN
18,3,NaN,NaN,NaN
19,3,NaN,NaN,NaN
20,3,NaN,NaN,NaN
21,3,NaN,NaN,NaN
22,3,NaN,NaN,NaN
23,3,NaN,NaN,NaN
24,3,NaN,NaN,NaN
25,3,NaN,NaN,NaN
26,3,NaN,NaN,NaN
27,3,NaN,NaN,NaN
28,3,NaN,NaN,NaN
29,3,NaN,NaN,NaN
30,3,NaN,NaN,NaN
31,3,NaN,NaN,NaN
32,3,NaN,NaN,NaN
33,3,NaN,NaN,NaN
34,3,NaN,NaN,NaN
35,3,NaN,NaN,NaN
36,3,NaN,NaN,NaN
37,3,NaN,NaN,NaN
38,3,NaN,NaN,NaN
39,3,NaN,NaN,NaN
40,3,NaN,NaN,NaN
41,3,NaN,NaN,NaN
42,3,NaN,NaN,NaN
43,3,NaN,NaN,NaN
44,3,NaN,NaN,NaN
45,3,NaN,NaN,NaN
46,3,NaN,NaN,NaN
47,3,NaN,NaN,NaN
48,3,NaN,NaN,NaN
49,3,NaN,NaN,NaN
50,3,NaN,NaN,NaN
51,3,NaN,NaN,NaN
52,3,NaN,NaN,NaN
53,3,NaN,NaN,NaN
54,3,NaN,NaN,NaN
55,3,NaN,NaN,NaN
56,3,NaN,NaN,NaN
57,3,NaN,NaN,NaN
58,3,NaN,NaN,NaN
59,3,NaN,NaN,NaN
60,3,NaN,NaN,NaN
61,3,NaN,NaN,NaN
62,3,NaN,NaN,NaN
63,3,NaN,NaN,NaN
64,3,NaN,NaN,NaN
65,3,NaN,NaN,NaN
66,3,NaN,NaN,NaN
67,3,NaN,NaN,NaN
68,3,NaN,NaN,NaN
69,3,NaN,NaN,NaN
70,3,NaN,NaN,NaN
71,3,NaN,NaN,NaN
72,3,NaN,NaN,NaN
73,3,NaN,NaN,NaN
74,3,NaN,NaN,NaN
75,3,NaN,NaN,NaN
76,3,NaN,NaN,NaN
77,3,NaN,NaN,NaN
78,3,NaN,NaN,NaN
79,3,NaN,NaN,NaN
80,3,NaN,NaN,NaN
81,3,NaN,NaN,NaN
82,3,NaN,NaN,NaN
83,3,NaN,NaN,NaN
84,3,NaN,NaN,NaN
85,3,NaN,NaN,NaN
86,3,NaN,NaN,NaN
87,3,NaN,NaN,NaN
88,3,NaN,NaN,NaN
89,3,NaN,NaN,NaN
90,3,NaN,NaN,NaN
91,3,NaN,NaN,NaN
92,3,NaN,NaN,NaN
93,3,NaN,NaN,NaN
94,3,NaN,NaN,NaN
95,3,NaN,NaN,NaN
96,3,NaN,NaN,NaN
97,3,NaN,NaN,NaN
98,3,NaN,NaN,NaN
99,3,NaN,NaN,NaN
100,3,NaN,NaN,NaN
101,3,NaN,NaN,NaN
102,3,NaN,NaN,NaN
103,3,NaN,NaN,NaN
104,3,NaN,NaN,NaN
105,3,NaN,NaN,NaN
106,3,NaN,NaN,NaN
107,3,NaN,NaN,NaN
108,3,NaN,NaN,NaN
109,3,NaN,NaN,NaN
110,3,NaN,NaN,NaN
111,3,NaN,NaN,NaN
112,3,NaN,NaN,NaN
113,3,NaN,NaN,NaN
114,3,NaN,NaN,NaN
115,3,NaN,NaN,NaN
116,3,NaN,NaN,NaN
117,3,NaN,NaN,NaN
118,3,NaN,NaN,NaN
119,3,NaN,NaN,NaN
120,3,NaN,NaN,NaN
121,3,NaN,NaN,NaN
122,3,NaN,NaN,NaN
123,3,NaN,NaN,NaN
124,3,NaN,NaN,NaN
125,3,NaN,NaN,NaN
126,3,NaN,NaN,NaN
127,3,NaN,NaN,NaN
128,3,NaN,NaN,NaN
129,3,NaN,NaN,NaN
130,3,NaN,NaN,NaN
131,3,NaN,NaN,NaN
132,3,NaN,NaN,NaN
133,3,NaN,NaN,NaN
134,3,NaN,NaN,NaN
135,3,NaN,NaN,NaN
136,3,NaN,NaN,NaN
137,3,NaN,NaN,NaN
138,3,NaN,NaN,NaN
139,3,NaN,NaN,NaN
140,3,NaN,NaN,NaN
141,3,NaN,NaN,NaN
142,3,NaN,NaN,NaN
143,3,NaN,NaN,NaN
144,3,NaN,NaN,NaN
145,3,NaN,NaN,NaN
146,3,NaN,NaN,NaN
147,3,NaN,NaN,NaN
148,3,NaN,NaN,NaN
149,3,NaN,NaN,NaN
150,3,NaN,NaN,NaN
151,3,NaN,NaN,NaN
152,3,NaN,NaN,NaN
153,3,NaN,NaN,NaN
154,3,NaN,NaN,NaN
155,3,NaN,NaN,NaN
156,3,NaN,NaN,NaN
157,3,NaN,NaN,NaN
158,3,NaN,NaN,NaN
159,3,NaN,NaN,NaN
160,3,NaN,NaN,NaN
161,3,NaN,NaN,NaN
162,3,NaN,NaN,NaN
163,3,NaN,NaN,NaN
164,3,NaN,NaN,NaN
165,3,NaN,NaN,NaN
166,3,NaN,NaN,NaN
167,3,NaN,NaN,NaN
168,3,NaN,NaN,NaN
169,3,NaN,NaN,NaN
170,3,NaN,NaN,NaN
171,3,NaN,NaN,NaN
172,3,NaN,NaN,NaN
173,3,NaN,NaN,NaN
174,3,NaN,NaN,NaN
175,3,NaN,NaN,NaN
176,3,NaN,NaN,NaN
177,3,NaN,NaN,NaN
178,3,NaN,NaN,NaN
179,3,NaN,NaN,NaN
180,3,NaN,NaN,NaN
181,3,NaN,NaN,NaN
182,3,NaN,NaN,NaN
183,3,NaN,NaN,NaN
184,3,NaN,NaN,NaN
185,3,NaN,NaN,NaN
186,3,NaN,NaN,NaN
187,3,NaN,NaN,NaN
188,3,NaN,NaN,NaN
189,3,NaN,NaN,NaN
190,3,NaN,NaN,NaN
191,3,NaN,NaN,NaN
192,3,NaN,NaN,NaN
193,3,NaN,NaN,NaN
194,3,NaN,NaN,NaN
195,3,NaN,NaN,NaN
196,3,NaN,NaN,NaN
197,3,NaN,NaN,NaN
198,3,NaN,NaN,NaN
199,3,NaN,NaN,NaN
200,3,NaN,NaN,NaN
201,3,NaN,NaN,NaN
1,4,NaN,NaN,NaN
2,4,NaN,NaN,NaN
3,4,NaN,NaN,NaN
4,4,NaN,NaN,NaN
5,4,NaN,NaN,NaN
6,4,NaN,NaN,NaN
7,4,NaN,NaN,NaN
8,4,NaN,NaN,NaN
9,4,NaN,NaN,NaN
10,4,NaN,NaN,NaN
11,4,NaN,NaN,NaN
12,4,NaN,NaN,NaN
13,4,NaN,NaN,NaN
14,4,NaN,NaN,NaN
15,4,NaN,NaN,NaN
16,4,NaN,NaN,NaN
17,4,NaN,NaN,NaN
18,4,NaN,NaN,NaN
19,4,NaN,NaN,NaN
20,4,NaN,NaN,NaN
21,4,NaN,NaN,NaN
22,4,NaN,NaN,NaN
23,4,NaN,NaN,NaN
24,4,NaN,NaN,NaN
25,4,NaN,NaN,NaN
26,4,NaN,NaN,NaN
27,4,NaN,NaN,NaN
28,4,NaN,NaN,NaN
29,4,NaN,NaN,NaN
30,4,NaN,NaN,NaN
31,4,NaN,NaN,NaN
32,4,NaN,NaN,NaN
33,4,NaN,NaN,NaN
34,4,NaN,NaN,NaN
35,4,NaN,NaN,NaN
36,4,NaN,NaN,NaN
37,4,NaN,NaN,NaN
38,4,NaN,NaN,NaN
39,4,NaN,NaN,NaN
40,4,NaN,NaN,NaN
41,4,NaN,NaN,NaN
42,4,NaN,NaN,NaN
43,4,NaN,NaN,NaN
44,4,NaN,NaN,NaN
45,4,NaN,NaN,NaN
46,4,NaN,NaN,NaN
47,4,NaN,NaN,NaN
48,4,NaN,NaN,NaN
49,4,NaN,NaN,NaN
50,4,NaN,NaN,NaN
51,4,NaN,NaN,NaN
52,4,NaN,NaN,NaN
53,4,NaN,NaN,NaN
54,4,NaN,NaN,NaN
55,4,NaN,NaN,NaN
56,4,NaN,NaN,NaN
57,4,NaN,NaN,NaN
58,4,NaN,NaN,NaN
59,4,NaN,NaN,NaN
60,4,NaN,NaN,NaN
61,4,NaN,NaN,NaN
62,4,NaN,NaN,NaN
63,4,NaN,NaN,NaN
64,4,NaN,NaN,NaN
65,4,NaN,NaN,NaN
66,4,NaN,NaN,NaN
67,4,NaN,NaN,NaN
68,4,NaN,NaN,NaN
69,4,NaN,NaN,NaN
70,4,NaN,NaN,NaN
71,4,NaN,NaN,NaN
72,4,NaN,NaN,NaN
73,4,NaN,NaN,NaN
74,4,NaN,NaN,NaN
75,4,NaN,NaN,NaN
76,4,NaN,NaN,NaN
77,4,NaN,NaN,NaN
78,4,NaN,NaN,NaN
79,4,NaN,NaN,NaN
80,4,NaN,NaN,NaN
81,4,NaN,NaN,NaN
82,4,NaN,NaN,NaN
83,4,NaN,NaN,NaN
84,4,NaN,NaN,NaN
85,4,NaN,NaN,NaN
86,4,NaN,NaN,NaN
87,4,NaN,NaN,NaN
88,4,NaN,NaN,NaN
89,4,NaN,NaN,NaN
90,4,NaN,NaN,NaN
91,4,NaN,NaN,NaN
92,4,NaN,NaN,NaN
93,4,NaN,NaN,NaN
94,4,NaN,NaN,NaN
95,4,NaN,NaN,NaN
96,4,NaN,NaN,NaN
97,4,NaN,NaN,NaN
98,4,NaN,NaN,NaN
99,4,NaN,NaN,NaN
100,4,NaN,NaN,NaN
101,4,NaN,NaN,NaN
102,4,NaN,NaN,NaN
103,4,NaN,NaN,NaN
104,4,NaN,NaN,NaN
105,4,NaN,NaN,NaN
106,4,NaN,NaN,NaN
107,4,NaN,NaN,NaN
108,4,NaN,NaN,NaN
109,4,NaN,NaN,NaN
110,4,NaN,NaN,NaN
111,4,NaN,NaN,NaN
112,4,NaN,NaN,NaN
113,4,NaN,NaN,NaN
114,4,NaN,NaN,NaN
115,4,NaN,NaN,NaN
116,4,NaN,NaN,NaN
117,4,NaN,NaN,NaN
118,4,NaN,NaN,NaN
119,4,NaN,NaN,NaN
120,4,NaN,NaN,NaN
121,4,NaN,NaN,NaN
122,4,NaN,NaN,NaN
123,4,NaN,NaN,NaN
124,4,NaN,NaN,NaN
125,4,NaN,NaN,NaN
126,4,NaN,NaN,NaN
127,4,NaN,NaN,NaN
128,4,NaN,NaN,NaN
129,4,NaN,NaN,NaN
130,4,NaN,NaN,NaN
131,4,NaN,NaN,NaN
132,4,NaN,NaN,NaN
133,4,NaN,NaN,NaN
134,4,NaN,NaN,NaN
135,4,NaN,NaN,NaN
136,4,NaN,NaN,NaN
137,4,NaN,NaN,NaN
138,4,NaN,NaN,NaN
139,4,NaN,NaN,NaN
140,4,NaN,NaN,NaN
141,4,NaN,NaN,NaN
142,4,NaN,NaN,NaN
143,4,NaN,NaN,NaN
144,4,NaN,NaN,NaN
145,4,NaN,NaN,NaN
146,4,NaN,NaN,NaN
147,4,NaN,NaN,NaN
148,4,NaN,NaN,NaN
149,4,NaN,NaN,NaN
150,4,NaN,NaN,NaN
151,4,NaN,NaN,NaN
152,4,NaN,NaN,NaN
153,4,NaN,NaN,NaN
154,4,NaN,NaN,NaN
155,4,NaN,NaN,NaN
156,4,NaN,NaN,NaN
157,4,NaN,NaN,NaN
158,4,NaN,NaN,NaN
159,4,NaN,NaN,NaN
160,4,NaN,NaN,NaN
161,4,NaN,NaN,NaN
162,4,NaN,NaN,NaN
163,4,NaN,NaN,NaN
164,4,NaN,NaN,NaN
165,4,NaN,NaN,NaN
166,4,NaN,NaN,NaN
167,4,NaN,NaN,NaN
168,4,NaN,NaN,NaN
169,4,NaN,NaN,NaN
170,4,NaN,NaN,NaN
171,4,NaN,NaN,NaN
172,4,NaN,NaN,NaN
173,4,NaN,NaN,NaN
174,4,NaN,NaN,NaN
175,4,NaN,NaN,NaN
176,4,NaN,NaN,NaN
177,4,NaN,NaN,NaN
178,4,NaN,NaN,NaN
179,4,NaN,NaN,NaN
180,4,NaN,NaN,NaN
181,4,NaN,NaN,NaN
182,4,NaN,NaN,NaN
183,4,NaN,NaN,NaN
184,4,NaN,NaN,NaN
185,4,NaN,NaN,NaN
186,4,NaN,NaN,NaN
187,4,NaN,NaN,NaN
188,4,NaN,NaN,NaN
189,4,NaN,NaN,NaN
190,4,NaN,NaN,NaN
191,4,NaN,NaN,NaN
192,4,NaN,NaN,NaN
193,4,NaN,NaN,NaN
194,4,NaN,NaN,NaN
195,4,NaN,NaN,NaN
196,4,NaN,NaN,NaN
197,4,NaN,NaN,NaN
198,4,NaN,NaN,NaN
199,4,NaN,NaN,NaN
200,4,NaN,NaN,NaN
201,4,NaN,NaN,NaN
1,5,NaN,NaN,NaN
2,5,NaN,NaN,NaN
3,5,NaN,NaN,NaN
4,5,NaN,NaN,NaN
5,5,NaN,NaN,NaN
6,5,NaN,NaN,NaN
7,5,NaN,NaN,NaN
8,5,NaN,NaN,NaN
9,5,NaN,NaN,NaN
10,5,NaN,NaN,NaN
11,5,NaN,NaN,NaN
12,5,NaN,NaN,NaN
13,5,NaN,NaN,NaN
14,5,NaN,NaN,NaN
15,5,NaN,NaN,NaN
16,5,NaN,NaN,NaN
17,5,NaN,NaN,NaN
18,5,NaN,NaN,NaN
19,5,NaN,NaN,NaN
20,5,NaN,NaN,NaN
21,5,NaN,NaN,NaN
22,5,NaN,NaN,NaN
23,5,NaN,NaN,NaN
24,5,NaN,NaN,NaN
25,5,NaN,NaN,NaN
26,5,NaN,NaN,NaN
27,5,NaN,NaN,NaN
28,5,NaN,NaN,NaN
29,5,NaN,NaN,NaN
30,5,NaN,NaN,NaN
31,5,NaN,NaN,NaN
32,5,NaN,NaN,NaN
33,5,NaN,NaN,NaN
34,5,NaN,NaN,NaN
35,5,NaN,NaN,NaN
36,5,NaN,NaN,NaN
37,5,NaN,NaN,NaN
38,5,NaN,NaN,NaN
39,5,NaN,NaN,NaN
40,5,NaN,NaN,NaN
41,5,NaN,NaN,NaN
42,5,NaN,NaN,NaN
43,5,NaN,NaN,NaN
44,5,NaN,NaN,NaN
45,5,NaN,NaN,NaN
46,5,NaN,NaN,NaN
47,5,NaN,NaN,NaN
48,5,NaN,NaN,NaN
49,5,NaN,NaN,NaN
50,5,NaN,NaN,NaN
51,5,NaN,NaN,NaN
52,5,NaN,NaN,NaN
53,5,NaN,NaN,NaN
54,5,NaN,NaN,NaN
55,5,NaN,NaN,NaN
56,5,NaN,NaN,NaN
57,5,NaN,NaN,NaN
58,5,NaN,NaN,NaN
59,5,NaN,NaN,NaN
60,5,NaN,NaN,NaN
61,5,NaN,NaN,NaN
62,5,NaN,NaN,NaN
63,5,NaN,NaN,NaN
64,5,NaN,NaN,NaN
65,5,NaN,NaN,NaN
66,5,NaN,NaN,NaN
67,5,NaN,NaN,NaN
68,5,NaN,NaN,NaN
69,5,NaN,NaN,NaN
70,5,NaN,NaN,NaN
71,5,NaN,NaN,NaN
72,5,NaN,NaN,NaN
73,5,NaN,NaN,NaN
74,5,NaN,NaN,NaN
75,5,NaN,NaN,NaN
76,5,NaN,NaN,NaN
77,5,NaN,NaN,NaN
78,5,NaN,NaN,NaN
79,5,NaN,NaN,NaN
80,5,NaN,NaN,NaN
81,5,NaN,NaN,NaN
82,5,NaN,NaN,NaN
83,5,NaN,NaN,NaN
84,5,NaN,NaN,NaN
85,5,NaN,NaN,NaN
86,5,NaN,NaN,NaN
87,5,NaN,NaN,NaN
88,5,NaN,NaN,NaN
89,5,NaN,NaN,NaN
90,5,NaN,NaN,NaN
91,5,NaN,NaN,NaN
92,5,NaN,NaN,NaN
93,5,NaN,NaN,NaN
94,5,NaN,NaN,NaN
95,5,NaN,NaN,NaN
96,5,NaN,NaN,NaN
97,5,NaN,NaN,NaN
98,5,NaN,NaN,NaN
99,5,NaN,NaN,NaN
100,5,NaN,NaN,NaN
101,5,NaN,NaN,NaN
102,5,NaN,NaN,NaN
103,5,NaN,NaN,NaN
104,5,NaN,NaN,NaN
105,5,NaN,NaN,NaN
106,5,NaN,NaN,NaN
107,5,NaN,NaN,NaN
108,5,NaN,NaN,NaN
109,5,NaN,NaN,NaN
110,5,NaN,NaN,NaN
111,5,NaN,NaN,NaN
112,5,NaN,NaN,NaN
113,5,NaN,NaN,NaN
114,5,NaN,NaN,NaN
115,5,NaN,NaN,NaN
116,5,NaN,NaN,NaN
117,5,NaN,NaN,NaN
118,5,NaN,NaN,NaN
119,5,NaN,NaN,NaN
120,5,NaN,NaN,NaN
121,5,NaN,NaN,NaN
122,5,NaN,NaN,NaN
123,5,NaN,NaN,NaN
124,5,NaN,NaN,NaN
125,5,NaN,NaN,NaN
126,5,NaN,NaN,NaN
127,5,NaN,NaN,NaN
128,5,NaN,NaN,NaN
129,5,NaN,NaN,NaN
130,5,NaN,NaN,NaN
131,5,NaN,NaN,NaN
132,5,NaN,NaN,NaN
133,5,NaN,NaN,NaN
134,5,NaN,NaN,NaN
135,5,NaN,NaN,NaN
136,5,NaN,NaN,NaN
137,5,NaN,NaN,NaN
138,5,NaN,NaN,NaN
139,5,NaN,NaN,NaN
140,5,NaN,NaN,NaN
141,5,NaN,NaN,NaN
142,5,NaN,NaN,NaN
143,5,NaN,NaN,NaN
144,5,NaN,NaN,NaN
145,5,NaN,NaN,NaN
146,5,NaN,NaN,NaN
147,5,NaN,NaN,NaN
148,5,NaN,NaN,NaN
149,5,NaN,NaN,NaN
150,5,NaN,NaN,NaN
151,5,NaN,NaN,NaN
152,5,NaN,NaN,NaN
153,5,NaN,NaN,NaN
154,5,NaN,NaN,NaN
155,5,NaN,NaN,NaN
156,5,NaN,NaN,NaN
157,5,NaN,NaN,NaN
158,5,NaN,NaN,NaN
159,5,NaN,NaN,NaN
160,5,NaN,NaN,NaN
161,5,NaN,NaN,NaN
162,5,NaN,NaN,NaN
163,5,NaN,NaN,NaN
164,5,NaN,NaN,NaN
165,5,NaN,NaN,NaN
166,5,NaN,NaN,NaN
167,5,NaN,NaN,NaN
168,5,NaN,NaN,NaN
169,5,NaN,NaN,NaN
170,5,NaN,NaN,NaN
171,5,NaN,NaN,NaN
172,5,NaN,NaN,NaN
173,5,NaN,NaN,NaN
174,5,NaN,NaN,NaN
175,5,NaN,NaN,NaN
176,5,NaN,NaN,NaN
177,5,NaN,NaN,NaN
178,5,NaN,NaN,NaN
179,5,NaN,NaN,NaN
180,5,NaN,NaN,NaN
181,5,NaN,NaN,NaN
182,5,NaN,NaN,NaN
183,5,NaN,NaN,NaN
184,5,NaN,NaN,NaN
185,5,NaN,NaN,NaN
186,5,NaN,NaN,NaN
187,5,NaN,NaN,NaN
188,5,NaN,NaN,NaN
189,5,NaN,NaN,NaN
190,5,NaN,NaN,NaN
191,5,NaN,NaN,NaN
192,5,NaN,NaN,NaN
193,5,NaN,NaN,NaN
194,5,NaN,NaN,NaN
195,5,NaN,NaN,NaN
196,5,NaN,NaN,NaN
197,5,NaN,NaN,NaN
198,5,NaN,NaN,NaN
199,5,NaN,NaN,NaN
200,5,NaN,NaN,NaN
201,5,NaN,NaN,NaN
1,6,NaN,NaN,NaN
2,6,NaN,NaN,NaN
3,6,NaN,NaN,NaN
4,6,NaN,NaN,NaN
5,6,NaN,NaN,NaN
6,6,NaN,NaN,NaN
7,6,NaN,NaN,NaN
8,6,NaN,NaN,NaN
9,6,NaN,NaN,NaN
10,6,NaN,NaN,NaN
11,6,NaN,NaN,NaN
12,6,NaN,NaN,NaN
13,6,NaN,NaN,NaN
14,6,NaN,NaN,NaN
15,6,NaN,NaN,NaN
16,6,NaN,NaN,NaN
17,6,NaN,NaN,NaN
18,6,NaN,NaN,NaN
19,6,NaN,NaN,NaN
20,6,NaN,NaN,NaN
21,6,NaN,NaN,NaN
22,6,NaN,NaN,NaN
23,6,NaN,NaN,NaN
24,6,NaN,NaN,NaN
25,6,NaN,NaN,NaN
26,6,NaN,NaN,NaN
27,6,NaN,NaN,NaN
28,6,NaN,NaN,NaN
29,6,NaN,NaN,NaN
30,6,NaN,NaN,NaN
31,6,NaN,NaN,NaN
32,6,NaN,NaN,NaN
33,6,NaN,NaN,NaN
34,6,NaN,NaN,NaN
35,6,NaN,NaN,NaN
36,6,NaN,NaN,NaN
37,6,NaN,NaN,NaN
38,6,NaN,NaN,NaN
39,6,NaN,NaN,NaN
40,6,NaN,NaN,NaN
41,6,NaN,NaN,NaN
42,6,NaN,NaN,NaN
43,6,NaN,NaN,NaN
44,6,NaN,NaN,NaN
45,6,NaN,NaN,NaN
46,6,NaN,NaN,NaN
47,6,NaN,NaN,NaN
48,6,NaN,NaN,NaN
49,6,NaN,NaN,NaN
50,6,NaN,NaN,NaN
51,6,NaN,NaN,NaN
52,6,NaN,NaN,NaN
53,6,NaN,NaN,NaN
54,6,NaN,NaN,NaN
55,6,NaN,NaN,NaN
56,6,NaN,NaN,NaN
57,6,NaN,NaN,NaN
58,6,NaN,NaN,NaN
59,6,NaN,NaN,NaN
60,6,NaN,NaN,NaN
61,6,NaN,NaN,NaN
62,6,NaN,NaN,NaN
63,6,NaN,NaN,NaN
64,6,NaN,NaN,NaN
65,6,NaN,NaN,NaN
66,6,NaN,NaN,NaN
67,6,NaN,NaN,NaN
68,6,NaN,NaN,NaN
69,6,NaN,NaN,NaN
70,6,NaN,NaN,NaN
71,6,NaN,NaN,NaN
72,6,NaN,NaN,NaN
73,6,NaN,NaN,NaN
74,6,NaN,NaN,NaN
75,6,NaN,NaN,NaN
76,6,NaN,NaN,NaN
77,6,NaN,NaN,NaN
78,6,NaN,NaN,NaN
79,6,NaN,NaN,NaN
80,6,NaN,NaN,NaN
81,6,NaN,NaN,NaN
82,6,NaN,NaN,NaN
83,6,NaN,NaN,NaN
84,6,NaN,NaN,NaN
85,6,NaN,NaN,NaN
86,6,NaN,NaN,NaN
87,6,NaN,NaN,NaN
88,6,NaN,NaN,NaN
89,6,NaN,NaN,NaN
90,6,NaN,NaN,NaN
91,6,NaN,NaN,NaN
92,6,NaN,NaN,NaN
93,6,NaN,NaN,NaN
94,6,NaN,NaN,NaN
95,6,NaN,NaN,NaN
96,6,NaN,NaN,NaN
97,6,NaN,NaN,NaN
98,6,NaN,NaN,NaN
99,6,NaN,NaN,NaN
100,6,NaN,NaN,NaN
101,6,NaN,NaN,NaN
102,6,NaN,NaN,NaN
103,6,NaN,NaN,NaN
104,6,NaN,NaN,NaN
105,6,NaN,NaN,NaN
106,6,NaN,NaN,NaN
107,6,NaN,NaN,NaN
108,6,NaN,NaN,NaN
109,6,NaN,NaN,NaN
110,6,NaN,NaN,NaN
111,6,NaN,NaN,NaN
112,6,NaN,NaN,NaN
113,6,NaN,NaN,NaN
114,6,NaN,NaN,NaN
115,6,NaN,NaN,NaN
116,6,NaN,NaN,NaN
117,6,NaN,NaN,NaN
118,6,NaN,NaN,NaN
119,6,NaN,NaN,NaN
120,6,NaN,NaN,NaN
121,6,NaN,NaN,NaN
122,6,NaN,NaN,NaN
123,6,NaN,NaN,NaN
124,6,NaN,NaN,NaN
125,6,NaN,NaN,NaN
126,6,NaN,NaN,NaN
127,6,NaN,NaN,NaN
128,6,NaN,NaN,NaN
129,6,NaN,NaN,NaN
130,6,NaN,NaN,NaN
131,6,NaN,NaN,NaN
132,6,NaN,NaN,NaN
133,6,NaN,NaN,NaN
134,6,NaN,NaN,NaN
135,6,NaN,NaN,NaN
136,6,NaN,NaN,NaN
137,6,NaN,NaN,NaN
138,6,NaN,NaN,NaN
139,6,NaN,NaN,NaN
140,6,NaN,NaN,NaN
141,6,NaN,NaN,NaN
142,6,NaN,NaN,NaN
143,6,NaN,NaN,NaN
144,6,NaN,NaN,NaN
145,6,NaN,NaN,NaN
146,6,NaN,NaN,NaN
147,6,NaN,NaN,NaN
148,6,NaN,NaN,NaN
149,6,NaN,NaN,NaN
150,6,NaN,NaN,NaN
151,6,NaN,NaN,NaN
152,6,NaN,NaN,NaN
153,6,NaN,NaN,NaN
154,6,NaN,NaN,NaN
155,6,NaN,NaN,NaN
156,6,NaN,NaN,NaN
157,6,NaN,NaN,NaN
158,6,NaN,NaN,NaN
159,6,NaN,NaN,NaN
160,6,NaN,NaN,NaN
161,6,NaN,NaN,NaN
162,6,NaN,NaN,NaN
163,6,NaN,NaN,NaN
164,6,NaN,NaN,NaN
165,6,NaN,NaN,NaN
166,6,NaN,NaN,NaN
167,6,NaN,NaN,NaN
168,6,NaN,NaN,NaN
169,6,NaN,NaN,NaN
170,6,NaN,NaN,NaN
171,6,NaN,NaN,NaN
172,6,NaN,NaN,NaN
173,6,NaN,NaN,NaN
174,6,NaN,NaN,NaN
175,6,NaN,NaN,NaN
176,6,NaN,NaN,NaN
177,6,NaN,NaN,NaN
178,6,NaN,NaN,NaN
179,6,NaN,NaN,NaN
180,6,NaN,NaN,NaN
181,6,NaN,NaN,NaN
182,6,NaN,NaN,NaN
183,6,NaN,NaN,NaN
184,6,NaN,NaN,NaN
185,6,NaN,NaN,NaN
186,6,NaN,NaN,NaN
187,6,NaN,NaN,NaN
188,6,NaN,NaN,NaN
189,6,NaN,NaN,NaN
190,6,NaN,NaN,NaN
191,6,NaN,NaN,NaN
192,6,NaN,NaN,NaN
193,6,NaN,NaN,NaN
194,6,NaN,NaN,NaN
195,6,NaN,NaN,NaN
196,6,NaN,NaN,NaN
197,6,NaN,NaN,NaN
198,6,NaN,NaN,NaN
199,6,NaN,NaN,NaN
200,6,NaN,NaN,NaN
201,6,NaN,NaN,NaN
1,7,NaN,NaN,NaN
2,7,NaN,NaN,NaN
3,7,NaN,NaN,NaN
4,7,NaN,NaN,NaN
5,7,NaN,NaN,NaN
6,7,NaN,NaN,NaN
7,7,NaN,NaN,NaN
8,7,NaN,NaN,NaN
9,7,NaN,NaN,NaN
10,7,NaN,NaN,NaN
11,7,NaN,NaN,NaN
12,7,NaN,NaN,NaN
13,7,NaN,NaN,NaN
14,7,NaN,NaN,NaN
15,7,NaN,NaN,NaN
16,7,NaN,NaN,NaN
17,7,NaN,NaN,NaN
18,7,NaN,NaN,NaN
19,7,NaN,NaN,NaN
20,7,NaN,NaN,NaN
21,7,NaN,NaN,NaN
22,7,NaN,NaN,NaN
23,7,NaN,NaN,NaN
24,7,NaN,NaN,NaN
25,7,NaN,NaN,NaN
26,7,NaN,NaN,NaN
27,7,NaN,NaN,NaN
28,7,NaN,NaN,NaN
29,7,NaN,NaN,NaN
30,7,NaN,NaN,NaN
31,7,NaN,NaN,NaN
32,7,NaN,NaN,NaN
33,7,NaN,NaN,NaN
34,7,NaN,NaN,NaN
35,7,NaN,NaN,NaN
36,7,NaN,NaN,NaN
37,7,NaN,NaN,NaN
38,7,NaN,NaN,NaN
39,7,NaN,NaN,NaN
40,7,NaN,NaN,NaN
41,7,NaN,NaN,NaN
42,7,NaN,NaN,NaN
43,7,NaN,NaN,NaN
44,7,NaN,NaN,NaN
45,7,NaN,NaN,NaN
46,7,NaN,NaN,NaN
47,7,NaN,NaN,NaN
48,7,NaN,NaN,NaN
49,7,NaN,NaN,NaN
50,7,NaN,NaN,NaN
51,7,NaN,NaN,NaN
52,7,NaN,NaN,NaN
53,7,NaN,NaN,NaN
54,7,NaN,NaN,NaN
55,7,NaN,NaN,NaN
56,7,NaN,NaN,NaN
57,7,NaN,NaN,NaN
58,7,NaN,NaN,NaN
59,7,NaN,NaN,NaN
60,7,NaN,NaN,NaN
61,7,NaN,NaN,NaN
62,7,NaN,NaN,NaN
63,7,NaN,NaN,NaN
64,7,NaN,NaN,NaN
65,7,NaN,NaN,NaN
66,7,NaN,NaN,NaN
67,7,NaN,NaN,NaN
68,7,NaN,NaN,NaN
69,7,NaN,NaN,NaN
70,7,NaN,NaN,NaN
71,7,NaN,NaN,NaN
72,7,NaN,NaN,NaN
73,7,NaN,NaN,NaN
74,7,NaN,NaN,NaN
75,7,NaN,NaN,NaN
76,7,NaN,NaN,NaN
77,7,NaN,NaN,NaN
78,7,NaN,NaN,NaN
79,7,NaN,NaN,NaN
80,7,NaN,NaN,NaN
81,7,NaN,NaN,NaN
82,7,NaN,NaN,NaN
83,7,NaN,NaN,NaN
84,7,NaN,NaN,NaN
85,7,NaN,NaN,NaN
86,7,NaN,NaN,NaN
87,7,NaN,NaN,NaN
88,7,NaN,NaN,NaN
89,7,NaN,NaN,NaN
90,7,NaN,NaN,NaN
91,7,NaN,NaN,NaN
92,7,NaN,NaN,NaN
93,7,NaN,NaN,NaN
94,7,NaN,NaN,NaN
95,7,NaN,NaN,NaN
96,7,NaN,NaN,NaN
97,7,NaN,NaN,NaN
98,7,NaN,NaN,NaN
99,7,NaN,NaN,NaN
100,7,NaN,NaN,NaN
101,7,NaN,NaN,NaN
102,7,NaN,NaN,NaN
103,7,NaN,NaN,NaN
104,7,NaN,NaN,NaN
105,7,NaN,NaN,NaN
106,7,NaN,NaN,NaN
107,7,NaN,NaN,NaN
108,7,NaN,NaN,NaN
109,7,NaN,NaN,NaN
110,7,NaN,NaN,NaN
111,7,NaN,NaN,NaN
112,7,NaN,NaN,NaN
113,7,NaN,NaN,NaN
114,7,NaN,NaN,NaN
115,7,NaN,NaN,NaN
116,7,NaN,NaN,NaN
117,7,NaN,NaN,NaN
118,7,NaN,NaN,NaN
119,7,NaN,NaN,NaN
120,7,NaN,NaN,NaN
121,7,NaN,NaN,NaN
122,7,NaN,NaN,NaN
123,7,NaN,NaN,NaN
124,7,NaN,NaN,NaN
125,7,NaN,NaN,NaN
126,7,NaN,NaN,NaN
127,7,NaN,NaN,NaN
128,7,NaN,NaN,NaN
129,7,NaN,NaN,NaN
130,7,NaN,NaN,NaN
131,7,NaN,NaN,NaN
132,7,NaN,NaN,NaN
133,7,NaN,NaN,NaN
134,7,NaN,NaN,NaN
135,7,NaN,NaN,NaN
136,7,NaN,NaN,NaN
137,7,NaN,NaN,NaN
138,7,NaN,NaN,NaN
139,7,NaN,NaN,NaN
140,7,NaN,NaN,NaN
141,7,NaN,NaN,NaN
142,7,NaN,NaN,NaN
143,7,NaN,NaN,NaN
144,7,NaN,NaN,NaN
145,7,NaN,NaN,NaN
146,7,NaN,NaN,NaN
147,7,NaN,NaN,NaN
148,7,NaN,NaN,NaN
149,7,NaN,NaN,NaN
150,7,NaN,NaN,NaN
151,7,NaN,NaN,NaN
152,7,NaN,NaN,NaN
153,7,NaN,NaN,NaN
154,7,NaN,NaN,NaN
155,7,NaN,NaN,NaN
156,7,NaN,NaN,NaN
157,7,NaN,NaN,NaN
158,7,NaN,NaN,NaN
159,7,NaN,NaN,NaN
160,7,NaN,NaN,NaN
161,7,NaN,NaN,NaN
162,7,NaN,NaN,NaN
163,7,NaN,NaN,NaN
164,7,NaN,NaN,NaN
165,7,NaN,NaN,NaN
166,7,NaN,NaN,NaN
167,7,NaN,NaN,NaN
168,7,NaN,NaN,NaN
169,7,NaN,NaN,NaN
170,7,NaN,NaN,NaN
171,7,NaN,NaN,NaN
172,7,NaN,NaN,NaN
173,7,NaN,NaN,NaN
174,7,NaN,NaN,NaN
175,7,NaN,NaN,NaN
176,7,NaN,NaN,NaN
177,7,NaN,NaN,NaN
178,7,NaN,NaN,NaN
179,7,NaN,NaN,NaN
180,7,NaN,NaN,NaN
181,7,NaN,NaN,NaN
182,7,NaN,NaN,NaN
183,7,NaN,NaN,NaN
184,7,NaN,NaN,NaN
185,7,NaN,NaN,NaN
186,7,NaN,NaN,NaN
187,7,NaN,NaN,NaN
188,7,NaN,NaN,NaN
189,7,NaN,NaN,NaN
190,7,NaN,NaN,NaN
191,7,NaN,NaN,NaN
192,7,NaN,NaN,NaN
193,7,NaN,NaN,NaN
194,7,NaN,NaN,NaN
195,7,NaN,NaN,NaN
196,7,NaN,NaN,NaN
197,7,NaN,NaN,NaN
198,7,NaN,NaN,NaN
199,7,NaN,NaN,NaN
200,7,NaN,NaN,NaN
201,7,NaN,NaN,NaN
1,8,NaN,NaN,NaN
2,8,NaN,NaN,NaN
3,8,NaN,NaN,NaN
4,8,NaN,NaN,NaN
5,8,NaN,NaN,NaN
6,8,NaN,NaN,NaN
7,8,NaN,NaN,NaN
8,8,NaN,NaN,NaN
9,8,NaN,NaN,NaN
10,8,NaN,NaN,NaN
11,8,NaN,NaN,NaN
12,8,NaN,NaN,NaN
13,8,NaN,NaN,NaN
14,8,NaN,NaN,NaN
15,8,NaN,NaN,NaN
16,8,NaN,NaN,NaN
17,8,NaN,NaN,NaN
18,8,NaN,NaN,NaN
19,8,NaN,NaN,NaN
20,8,NaN,NaN,NaN
21,8,NaN,NaN,NaN
22,8,NaN,NaN,NaN
23,8,NaN,NaN,NaN
24,8,NaN,NaN,NaN
25,8,NaN,NaN,NaN
26,8,NaN,NaN,NaN
27,8,NaN,NaN,NaN
28,8,NaN,NaN,NaN
29,8,NaN,NaN,NaN
30,8,NaN,NaN,NaN
31,8,NaN,NaN,NaN
32,8,NaN,NaN,NaN
33,8,NaN,NaN,NaN
34,8,NaN,NaN,NaN
35,8,NaN,NaN,NaN
36,8,NaN,NaN,NaN
37,8,NaN,NaN,NaN
38,8,NaN,NaN,NaN
39,8,NaN,NaN,NaN
40,8,NaN,NaN,NaN
41,8,NaN,NaN,NaN
42,8,NaN,NaN,NaN
43,8,NaN,NaN,NaN
44,8,NaN,NaN,NaN
45,8,NaN,NaN,NaN
46,8,NaN,NaN,NaN
47,8,NaN,NaN,NaN
48,8,NaN,NaN,NaN
49,8,NaN,NaN,NaN
50,8,NaN,NaN,NaN
51,8,NaN,NaN,NaN
52,8,NaN,NaN,NaN
53,8,NaN,NaN,NaN
54,8,NaN,NaN,NaN
55,8,NaN,NaN,NaN
56,8,NaN,NaN,NaN
57,8,NaN,NaN,NaN
58,8,NaN,NaN,NaN
59,8,NaN,NaN,NaN
60,8,NaN,NaN,NaN
61,8,NaN,NaN,NaN
62,8,NaN,NaN,NaN
63,8,NaN,NaN,NaN
64,8,NaN,NaN,NaN
65,8,NaN,NaN,NaN
66,8,NaN,NaN,NaN
67,8,NaN,NaN,NaN
68,8,NaN,NaN,NaN
69,8,NaN,NaN,NaN
70,8,NaN,NaN,NaN
71,8,NaN,NaN,NaN
72,8,NaN,NaN,NaN
73,8,NaN,NaN,NaN
74,8,NaN,NaN,NaN
75,8,NaN,NaN,NaN
76,8,NaN,NaN,NaN
77,8,NaN,NaN,NaN
78,8,NaN,NaN,NaN
79,8,NaN,NaN,NaN
80,8,NaN,NaN,NaN
81,8,NaN,NaN,NaN
82,8,NaN,NaN,NaN
83,8,NaN,NaN,NaN
84,8,NaN,NaN,NaN
85,8,NaN,NaN,NaN
86,8,NaN,NaN,NaN
87,8,NaN,NaN,NaN
88,8,NaN,NaN,NaN
89,8,NaN,NaN,NaN
90,8,NaN,NaN,NaN
91,8,NaN,NaN,NaN
92,8,NaN,NaN,NaN
93,8,NaN,NaN,NaN
94,8,NaN,NaN,NaN
95,8,NaN,NaN,NaN
96,8,NaN,NaN,NaN
97,8,NaN,NaN,NaN
98,8,NaN,NaN,NaN
99,8,NaN,NaN,NaN
100,8,NaN,NaN,NaN
101,8,NaN,NaN,NaN
102,8,NaN,NaN,NaN
103,8,NaN,NaN,NaN
104,8,NaN,NaN,NaN
105,8,NaN,NaN,NaN
106,8,NaN,NaN,NaN
107,8,NaN,NaN,NaN
108,8,NaN,NaN,NaN
109,8,NaN,NaN,NaN
110,8,NaN,NaN,NaN
111,8,NaN,NaN,NaN
112,8,NaN,NaN,NaN
113,8,NaN,NaN,NaN
114,8,NaN,NaN,NaN
115,8,NaN,NaN,NaN
116,8,NaN,NaN,NaN
117,8,NaN,NaN,NaN
118,8,NaN,NaN,NaN
119,8,NaN,NaN,NaN
120,8,NaN,NaN,NaN
121,8,NaN,NaN,NaN
122,8,NaN,NaN,NaN
123,8,NaN,NaN,NaN
124,8,NaN,NaN,NaN
125,8,NaN,NaN,NaN
126,8,NaN,NaN,NaN
127,8,NaN,NaN,NaN
128,8,NaN,NaN,NaN
129,8,NaN,NaN,NaN
130,8,NaN,NaN,NaN
131,8,NaN,NaN,NaN
132,8,NaN,NaN,NaN
133,8,NaN,NaN,NaN
134,8,NaN,NaN,NaN
135,8,NaN,NaN,NaN
136,8,NaN,NaN,NaN
137,8,NaN,NaN,NaN
138,8,NaN,NaN,NaN
139,8,NaN,NaN,NaN
140,8,NaN,NaN,NaN
141,8,NaN,NaN,NaN
142,8,NaN,NaN,NaN
143,8,NaN,NaN,NaN
144,8,NaN,NaN,NaN
145,8,NaN,NaN,NaN
146,8,NaN,NaN,NaN
147,8,NaN,NaN,NaN
148,8,NaN,NaN,NaN
149,8,NaN,NaN,NaN
150,8,NaN,NaN,NaN
151,8,NaN,NaN,NaN
152,8,NaN,NaN,NaN
153,8,NaN,NaN,NaN
154,8,NaN,NaN,NaN
155,8,NaN,NaN,NaN
156,8,NaN,NaN,NaN
157,8,NaN,NaN,NaN
158,8,NaN,NaN,NaN
159,8,NaN,NaN,NaN
160,8,NaN,NaN,NaN
161,8,NaN,NaN,NaN
162,8,NaN,NaN,NaN
163,8,NaN,NaN,NaN
164,8,NaN,NaN,NaN
165,8,NaN,NaN,NaN
166,8,NaN,NaN,NaN
167,8,NaN,NaN,NaN
168,8,NaN,NaN,NaN
169,8,NaN,NaN,NaN
170,8,NaN,NaN,NaN
171,8,NaN,NaN,NaN
172,8,NaN,NaN,NaN
173,8,NaN,NaN,NaN
174,8,NaN,NaN,NaN
175,8,NaN,NaN,NaN
176,8,NaN,NaN,NaN
177,8,NaN,NaN,NaN
178,8,NaN,NaN,NaN
179,8,NaN,NaN,NaN
180,8,NaN,NaN,NaN
181,8,NaN,NaN,NaN
182,8,NaN,NaN,NaN
183,8,NaN,NaN,NaN
184,8,NaN,NaN,NaN
185,8,NaN,NaN,NaN
186,8,NaN,NaN,NaN
187,8,NaN,NaN,NaN
188,8,NaN,NaN,NaN
189,8,NaN,NaN,NaN
190,8,NaN,NaN,NaN
191,8,NaN,NaN,NaN
192,8,NaN,NaN,NaN
193,8,NaN,NaN,NaN
194,8,NaN,NaN,NaN
195,8,NaN,NaN,NaN
196,8,NaN,NaN,NaN
197,8,NaN,NaN,NaN
198,8,NaN,NaN,NaN
199,8,NaN,NaN,NaN
200,8,NaN,NaN,NaN
201,8,NaN,NaN,NaN
1,9,NaN,NaN,NaN
2,9,NaN,NaN,NaN
3,9,NaN,NaN,NaN
4,9,NaN,NaN,NaN
5,9,NaN,NaN,NaN
6,9,NaN,NaN,NaN
7,9,NaN,NaN,NaN
8,9,NaN,NaN,NaN
9,9,NaN,NaN,NaN
10,9,NaN,NaN,NaN
11,9,NaN,NaN,NaN
12,9,NaN,NaN,NaN
13,9,NaN,NaN,NaN
14,9,NaN,NaN,NaN
15,9,NaN,NaN,NaN
16,9,NaN,NaN,NaN
17,9,NaN,NaN,NaN
18,9,NaN,NaN,NaN
19,9,NaN,NaN,NaN
20,9,NaN,NaN,NaN
21,9,NaN,NaN,NaN
22,9,NaN,NaN,NaN
23,9,NaN,NaN,NaN
24,9,NaN,NaN,NaN
25,9,NaN,NaN,NaN
26,9,NaN,NaN,NaN
27,9,NaN,NaN,NaN
28,9,NaN,NaN,NaN
29,9,NaN,NaN,NaN
30,9,NaN,NaN,NaN
31,9,NaN,NaN,NaN
32,9,NaN,NaN,NaN
33,9,NaN,NaN,NaN
34,9,NaN,NaN,NaN
35,9,NaN,NaN,NaN
36,9,NaN,NaN,NaN
37,9,NaN,NaN,NaN
38,9,NaN,NaN,NaN
39,9,NaN,NaN,NaN
40,9,NaN,NaN,NaN
41,9,NaN,NaN,NaN
42,9,NaN,NaN,NaN
43,9,NaN,NaN,NaN
44,9,NaN,NaN,NaN
45,9,NaN,NaN,NaN
46,9,NaN,NaN,NaN
47,9,NaN,NaN,NaN
48,9,NaN,NaN,NaN
49,9,NaN,NaN,NaN
50,9,NaN,NaN,NaN
51,9,NaN,NaN,NaN
52,9,NaN,NaN,NaN
53,9,NaN,NaN,NaN
54,9,NaN,NaN,NaN
55,9,NaN,NaN,NaN
56,9,NaN,NaN,NaN
57,9,NaN,NaN,NaN
58,9,NaN,NaN,NaN
59,9,NaN,NaN,NaN
60,9,NaN,NaN,NaN
61,9,NaN,NaN,NaN
62,9,NaN,NaN,NaN
63,9,NaN,NaN,NaN
64,9,NaN,NaN,NaN
65,9,NaN,NaN,NaN
66,9,NaN,NaN,NaN
67,9,NaN,NaN,NaN
68,9,NaN,NaN,NaN
69,9,NaN,NaN,NaN
70,9,NaN,NaN,NaN
71,9,NaN,NaN,NaN
72,9,NaN,NaN,NaN
73,9,NaN,NaN,NaN
74,9,NaN,NaN,NaN
75,9,NaN,NaN,NaN
76,9,NaN,NaN,NaN
77,9,NaN,NaN,NaN
78,9,NaN,NaN,NaN
79,9,NaN,NaN,NaN
80,9,NaN,NaN,NaN
81,9,NaN,NaN,NaN
82,9,NaN,NaN,NaN
83,9,NaN,NaN,NaN
84,9,NaN,NaN,NaN
85,9,NaN,NaN,NaN
86,9,NaN,NaN,NaN
87,9,NaN,NaN,NaN
88,9,NaN,NaN,NaN
89,9,NaN,NaN,NaN
90,9,NaN,NaN,NaN
91,9,NaN,NaN,NaN
92,9,NaN,NaN,NaN
93,9,NaN,NaN,NaN
94,9,NaN,NaN,NaN
95,9,NaN,NaN,NaN
96,9,NaN,NaN,NaN
97,9,NaN,NaN,NaN
98,9,NaN,NaN,NaN
99,9,NaN,NaN,NaN
100,9,NaN,NaN,NaN
101,9,NaN,NaN,NaN
102,9,NaN,NaN,NaN
103,9,NaN,NaN,NaN
104,9,NaN,NaN,NaN
105,9,NaN,NaN,NaN
106,9,NaN,NaN,NaN
107,9,NaN,NaN,NaN
108,9,NaN,NaN,NaN