TITLE="BGK Re = 100.0"
VARIABLES = X,Y,Rho,U,V
ZONE
I = 201	J = 101
F=POINT
1,1,1.8633892960704778e58,-1.8687545218303214,0.19369581460429194
2,1,5.443802010719673e58,-1.0605428969791595,-3.3644745427945573
3,1,1.9532411669274977e59,-0.7435259399608934,-0.1591164687800349
4,1,-1.237132165228452e60,-1.0512318798772216,-0.07729733947754103
5,1,-1.2437136687016632e60,-0.034747322978700375,-3.941823983758623
6,1,-1.2469559412168048e60,1.0527111023341464,-0.07681611970873786
7,1,2.0964530779170142e59,0.6466822609376071,-0.19659467686974316
8,1,5.470897376844842e58,0.29659979425404215,-3.803527026282365
9,1,4.692797654438439e58,1.0410782496218522,-0.05103181200506289
10,1,-7.516357330029077e57,0.9540268291008475,-0.33541170500420114
11,1,7.855813006685947e56,-0.8548496540199945,0.47393459514494046
12,1,-3.685490072712053e57,-0.9635102648885239,-0.06807740439429505
13,1,-3.3245085766277395e57,-0.1840673565208844,-4.078028672886094
14,1,-3.524072124002268e57,1.0131743523016126,-0.11834816119448288
15,1,5.22789199696243e56,0.9810519988423568,-0.19148494591523602
16,1,5.599941270169093e55,-1.2847413538969734,-3.119974777863888
17,1,5.451176173098538e55,-0.05461296613266418,-0.9463148609386158
18,1,7.547782696556657e54,1.7900714900297792,-0.8538255953482015
19,1,-6.287548614437592e55,-0.9510018481729358,-0.3071492600336766
20,1,3.973281462212416e56,-1.0399976087818752,-0.07970855771073948
21,1,3.978086146395724e56,0.05370905278252217,-3.9291532566233416
22,1,3.927075991762033e56,1.0532341280944315,-0.07784118268641488
23,1,-6.582430863558952e55,0.6234624431506768,-0.18926260254533536
24,1,-1.85897160875569e55,0.35966145130970056,-3.8225263136763945
25,1,-1.640568274411162e55,1.0007996275237123,-0.055893415346368415
26,1,3.148192149746596e54,0.837332753952782,-0.14263837803963947
27,1,-4.801008497741844e53,3.3857192468954027,-0.9309703698940666
28,1,1.4313480746940318e54,0.6875614500832219,-2.145449532682242
29,1,-1.3644730784688466e53,0.7862514350711112,-0.9647001560953442
30,1,2.8514641775143365e53,1.1059002366099535,-0.2695104244259395
31,1,-1.3894421359491602e52,0.7268479007653141,0.8470761785444818
32,1,-8.677896780095731e51,1.003673863387397,-0.9264965169717632
33,1,8.455221726092255e50,2.14060479572171,-0.6982658464038825
34,1,2.7539418455964416e51,0.14282662001571328,-0.4285654307298639
35,1,-6.050033807230059e50,2.2131605475111544,3.5112388771707526
36,1,7.98342910804759e50,0.8709891819829132,-0.44501216951385997
37,1,-2.273482435925729e50,1.0281221894055845,-0.4538845859182554
38,1,6.468560308690728e50,-1.026275442957934,-0.822422071593401
39,1,1.7144329779396763e50,0.46607160769653405,-0.7312369149667395
40,1,-9.12968642369474e49,1.0231968284243136,-1.040485181653536
41,1,-2.0616002009479232e49,1.093126395395326,0.4076401525737568
42,1,3.782093621653838e48,1.02813097232329,-0.6037489699202986
43,1,2.82997360343454e47,1.7038352884859491,-0.494370884628436
44,1,-5.403611796033774e47,1.0281109633573045,-0.40014227120356066
45,1,-4.932459941457123e46,-0.09201606771251165,-0.8240700226666048
46,1,2.908196770563578e46,1.0187639907169554,-0.2600745746072085
47,1,6.839534578477997e45,0.9737163065733763,-0.099198388920981
48,1,-3.817105499319064e44,0.813923323912635,-3.302913931435595
49,1,2.383964025790622e44,0.8741096750315828,-0.061157047030147495
50,1,-4.600237569131972e42,0.9905149539532633,2.9405426466135736
51,1,-3.283244930605688e40,3.1301264907832143,1.5525516862108009
52,1,9.181022987221756e40,0.4883445815393648,-0.9052314202420219
53,1,2.3616948430510426e40,0.8596929425696269,-1.1373838114732482
54,1,1.0191555371461639e40,-0.22036562206395474,-0.19224495963492508
55,1,-9.446509191034936e39,-0.03084989777765915,-0.09874790330013786
56,1,1.801453392892859e38,29.71837378418395,23.19378288154639
57,1,-3.4062038817313086e39,-0.09442888796121254,-1.1391702844040632
58,1,2.30806212264555e38,1.129218919508935,-0.8055996656027545
59,1,-2.2506652451403705e37,0.9048383485516611,-0.432144322502835
60,1,-1.9282343235199825e37,0.9343353208514708,-0.2897853815834704
61,1,-3.7316940657687614e35,0.7706660191981712,-1.4617099387916495
62,1,-6.581965091639926e34,1.272464667873805,-0.6789687640173637
63,1,-7.46819845972678e33,-4.350339533305132,-5.260078801243611
64,1,-1.8625467787323366e33,0.7221228399059442,-3.6524720525976058
65,1,1.4113237646031597e32,1.5208350178043724,-0.16138550633129226
66,1,-1.0600535606608659e32,0.9720177624411299,-0.3968368950212707
67,1,-2.7521078622972025e31,1.0048710159631318,-0.38525124361523955
68,1,3.0948594958633498e29,0.9684873731967146,-0.18594729509849864
69,1,7.122143343509935e28,1.0160738865920642,-0.3390847430130044
70,1,-4.023988996626462e27,1.012925784697154,-0.17447784510505435
71,1,-7.617555376462159e26,1.1170847964349409,-0.1949838530809625
72,1,3.2637868781336e25,1.0051912124454236,-0.40362130534501045
73,1,-2.889646207929041e24,1.0152645200514967,-0.5485802458047649
74,1,1.2145451263783385e23,1.0018769463845154,-0.17212589200936915
75,1,8.375142057422666e21,1.3759499789863998,-1.093929117404595
76,1,-1.467044814578312e22,0.9930266748502226,-0.20212917557854398
77,1,-5.424287890133094e20,0.9729600942091051,-0.28398598299225547
78,1,-1.0118587374750725e20,0.7486619609565746,-0.5038570320742656
79,1,-4.1119648519954227e18,0.6604978382920804,-1.6945045063911652
80,1,3.580413110213531e18,1.0371857727850025,0.8970046816946113
81,1,-4.984537923963225e17,0.9859800522826333,-0.38651418979474267
82,1,-3.831922901164282e16,1.1058023364022658,-0.20589922812932804
83,1,2.3831633335669108e16,0.9883464258796627,-0.3762620797204164
84,1,3.548480816588318e15,0.9925735087043159,-0.12718052116639084
85,1,1.2753160426090644e14,0.9872753773347946,-0.35063016694993476
86,1,1.163007382753772e13,1.0293058412394172,-0.3492457836477248
87,1,-1.4601195060018306e12,0.9589596418374634,-0.37078240457338524
88,1,-3.25690024267334e11,0.99568279725347,-0.3451001819821799
89,1,-7.945801211557138e9,1.0000000001259275,-0.3449164998815885
90,1,0.9997937861324185,3.076207692875073e-5,-0.001473162190688127
91,1,1.0001163752234012,-2.234876874841934e-5,0.0007012348824889546
92,1,0.9999103224394053,2.258949755828871e-5,-0.00029203972681643875
93,1,1.0000669156620874,-1.6620742755715487e-5,0.00024642145161781517
94,1,0.9999338755126288,1.8357677783836845e-5,-0.0001539784225106381
95,1,1.0000578998913903,-1.563801752173834e-5,0.00015260310043785954
96,1,0.9999660006478518,8.740460695291785e-6,-9.688534221196484e-5
97,1,1.0000145839320256,-2.944379717258922e-6,8.335568696005395e-5
98,1,0.9999888774398449,2.8280537023631997e-6,-3.676323887467168e-5
99,1,1.0000047514482886,-8.982482224227831e-7,2.637727635680199e-5
100,1,0.9999997594398371,-2.405602115967352e-7,-1.4466574141784525e-5
101,1,0.999999999999991,1.526556658859604e-16,-7.63278329429802e-16
102,1,1.0000002780930823,-2.78093013962205e-7,1.673623347490008e-5
103,1,0.9999946557964671,-1.191479038337126e-6,-2.1547166232328984e-5
104,1,1.0000099823950657,2.64370395600479e-6,3.0352164617542806e-5
105,1,0.9999889501183299,-2.1924721258219266e-6,-6.550262808287504e-5
106,1,1.0000287600986024,7.65921718324532e-6,7.045547861375624e-5
107,1,0.9999532512804155,-1.2600364901231598e-5,-0.00013066009255124117
108,1,1.0000496426867762,1.45739675581758e-5,8.21099871701691e-5
109,1,0.9999649241575648,-8.624228059146164e-6,-0.00015633620244154712
110,1,1.000039823704215,1.5769561211232374e-5,-0.00011670944299452311
111,1,1.0000393028391692,-1.859213448864814e-5,0.0012254264495714623
112,1,-5.853881377602821e9,-1.0000000001707245,-0.3442367343538144
113,1,1.6736739576798348e13,-1.0000612185263977,-0.3441814063696806
114,1,3.2204033615618594e14,-0.9909172379943274,-0.3424871735145214
115,1,-1.826660005568572e15,-1.0323921671146883,-0.34337829559236016
116,1,1.689078463609131e15,-1.1244855275167884,-0.39146393050849077
117,1,1.7065941625746032e17,-1.0028417158198892,-0.34180950826094203
118,1,3.016144179981336e18,-0.9905947026652312,-0.26305458112007296
119,1,-2.4795807913082966e19,-1.035579192646047,-0.5497143870965688
120,1,-2.8746113865629586e21,-0.9961985375158535,-0.3938450863524144
121,1,-3.4027521016054583e22,-0.996747637679179,-0.34215425125585097
122,1,-6.123355420666958e23,-0.9853123041863311,-0.3817482178873341
123,1,2.117159072550369e24,-0.47354241444705913,-0.7736013658969296
124,1,-4.313043530527531e25,-1.0093703611112745,-0.2192078409138463
125,1,-1.1715107523950501e27,-1.0081341617335076,-0.80340529818268
126,1,-1.5625496957036595e28,-0.8472078982601794,-0.6544812486674171
127,1,3.8686331478680096e26,-78.95530716638869,-17.772424721420887
128,1,6.70735885403156e29,-1.0475754392624685,-0.29308217533694336
129,1,1.224813104202579e30,-0.9179576746371219,-0.051367351700048816
130,1,2.2472551277359679e30,-0.5256999038389204,1.7243801774751462
131,1,-7.750962985898167e31,-0.9718529344204252,-0.5422101186936589
132,1,-2.2784572471655468e33,-1.0695777825770492,-0.6098179300198753
133,1,-2.512377132423278e33,0.4614763905978628,-2.170633962568231
134,1,3.145506620940329e33,3.1901477180116973,0.8773609250586536
135,1,-1.4890621633486559e35,-0.7143737572873358,-0.33511682339755355
136,1,4.71157847647788e36,-1.0174625085254374,-0.3590675090453586
137,1,-1.2979838848165103e35,8.542305274703876,-58.44123040341839
138,1,2.5439567373159964e37,-0.3255859996098673,-1.0146730423565502
139,1,1.0697619452673299e39,-0.9768908699738478,0.04189507216857243
140,1,1.0152918592021271e40,-0.8183381638262597,-1.7772712495143759
141,1,1.1162731031034742e40,-0.9461200081695632,-0.8004836704598012
142,1,1.325317797259662e40,-2.2247379430543495,-7.929286820118679
143,1,-9.62271275261368e40,-0.8054429874169915,-0.13380028755041548
144,1,-3.2114771940111626e41,-0.8693835032201498,-0.22528033830963487
145,1,-4.9683963908371474e41,-1.0583099703921655,0.3670020351217527
146,1,-1.9538541669747452e41,5.083430291179554,2.811285547955898
147,1,-9.989546883830742e42,-0.8655837743019649,-1.2875182802767633
148,1,-2.692962417035114e43,0.18290822264337023,-1.054460314174327
149,1,2.675294913098277e44,-0.9246221554164349,-0.356643987514603
150,1,-5.070374102563118e45,-0.9807211933412294,-0.08315437269521683
151,1,1.3635112016131565e46,-1.0836063558637026,-0.6174389475171218
152,1,4.229760632838286e46,-1.2195652414871798,-0.1290989939358099
153,1,-1.6191643346512967e46,-0.7337461326568394,1.6967659204759586
154,1,6.260534903321759e47,-0.9783621799054171,0.6770560909885093
155,1,1.7071392289784887e47,-4.654947941733323,-20.36520430505668
156,1,3.665407272854474e48,-0.562914936976237,0.1181829424219094
157,1,-4.4622496152815374e49,-0.871772123123028,-0.34874750951558914
158,1,-1.3399931114754907e49,3.57541924147939,-9.022736793710166
159,1,1.745476814155663e51,-1.008525613408083,-0.7756305465111719
160,1,3.1179266779805745e52,-0.9964108239982148,-0.2407562923512083
161,1,-3.298622813171736e52,-1.5917720430998945,-0.648508796726648
162,1,-3.935476214090984e53,-1.030940398313001,-0.3170655279983548
163,1,3.998423177920593e55,-1.0010166319959612,-0.2667211279296179
164,1,1.415187459493673e56,-0.9292150879473718,-0.19910283490892866
165,1,-2.826851526208842e57,-1.047453250614475,-0.13620094340645528
166,1,1.9876632815895725e57,-0.9971532687743497,-0.7985993715729899
167,1,-2.7883827617045646e59,-0.9968029657654136,-0.4490325935748758
168,1,-1.8189697987992107e58,0.9951544538600434,6.286699858173809
169,1,-7.450736748054408e59,-1.4262089262909314,0.14610363089628753
170,1,-2.0661226220921028e60,-0.5509461899602845,-1.6555325179755522
171,1,1.122533281280909e60,-1.7689268835156955,-0.5299306104415118
172,1,4.367729426792973e60,-1.1351235379213818,-0.8554519847789096
173,1,1.0096978721168632e60,-0.165617709153524,4.586572379275089
174,1,-7.047867373418916e61,-0.8922321155881728,-0.3329502489608065
175,1,4.362808377615115e62,-1.0515233423097146,-0.08554475304961968
176,1,4.830102563789182e62,-0.221309142942388,-3.592012221325989
177,1,6.11535553239342e62,0.12866581449940154,-0.12430279545116749
178,1,-2.458099217224777e63,-1.0632990858041744,-0.07648264260934197
179,1,-2.4492483803441934e63,0.01473275142711831,-3.9317496510045657
180,1,-2.4313429816733297e63,1.03553723048768,-0.07743384724644829
181,1,3.750529260014556e62,0.9588176004097365,-0.24725067422385844
182,1,8.683521277092086e61,-0.9412851224344421,-1.7929148061163083
183,1,1.5280109940201864e61,-0.7421662510994315,-0.7220472662826075
184,1,-8.015677791626204e61,-0.21006022871405405,-1.1948897434703043
185,1,2.0422661921622811e62,-1.8965055253722538,0.1718711675887743
186,1,2.4541328463271253e63,-0.8913810903498253,-0.8428209888958662
187,1,-5.558303138639736e63,-1.290626484543693,-0.0476741553310074
188,1,-1.6376978651343442e64,1.0945723182622564,-2.599715094842381
189,1,3.947616260047582e63,1.6040175994944028,0.26575345396885564
190,1,2.1766843940806216e64,-1.0784180899855924,-0.03876746635590991
191,1,2.4703275837473028e64,-0.22777753916772478,-3.863164350853689
192,1,9.242511499754723e64,-0.6277905535156565,-0.19402028285420367
193,1,-5.322401195833997e65,-1.05344294560924,-0.07803602164456107
194,1,-5.495209235627853e65,-0.13709223413040966,-3.904754125838531
195,1,-5.541356712749032e65,0.9575149000641613,-0.08763410749808657
196,1,5.033269122532188e65,-0.9068237863150315,-0.15527119548653878
197,1,5.081012704118438e65,0.0773055358098066,-3.655474441743637
198,1,5.348819686096035e65,0.9084344808831447,-0.20980107811526394
199,1,-4.7677272085418156e64,2.6327372052537843,-0.08608970051640649
200,1,-4.0799009038758156e63,0.8693713888964513,-5.631173687474809
201,1,9.087729971065988e62,-36.0619328178127,-16.415124019472554
1,2,4.199617864819934e58,-0.7217262884730873,-0.5038263978092219
2,2,-3.2514555352600345e58,-0.28586112015002463,5.538897334308812
3,2,-9.720641689176676e58,-0.11426729853551497,-0.3491701790525555
4,2,1.0699918806082852e60,-0.5475539186501008,0.20975182519822308
5,2,2.9327040986537538e60,0.053221699866621223,0.8324530118594317
6,2,8.301747966684816e59,0.8761363398402979,0.6702523943080436
7,2,-1.1131874818377913e59,0.39888827983764524,-0.5536104005673876
8,2,-1.340845937375758e59,0.19184421095120044,0.8162949014070472
9,2,-2.123713868970657e58,0.9059747724677802,0.8452271146387943
10,2,3.521882726425826e57,0.5913499596188437,-1.186269637104905
11,2,1.1500918563729853e57,1.296640756334108,0.2568998622422092
12,2,1.5434533844520763e57,-1.3447804368358518,0.7434293052893631
13,2,7.615395210177689e57,-0.019720736418125922,0.9454598902893601
14,2,2.537917760004516e57,0.776504365944558,0.7251005188448474
15,2,-2.1945627675745963e56,0.28228095885522003,-1.5223143938187278
16,2,-1.0558254373409709e56,0.2759345193744252,0.5973622313885653
17,2,-1.5001072805700797e56,0.11596392165573849,0.26183084604172846
18,2,-1.4363099901880755e55,2.157591656004835,-0.1515001862446876
19,2,4.476667923758807e55,-0.5969744385080171,-0.7573291778574692
20,2,-2.560333219398001e56,-0.8832237412807512,0.743880299572289
21,2,-8.927968187122103e56,-0.0008980520664199364,0.9148574566159906
22,2,-2.340923868279993e56,0.869259941530448,0.7350335883230719
23,2,3.1668056448616223e55,0.2594328825173629,-0.5585139908959071
24,2,4.6390445122268163e55,0.18223824059134638,0.7996572888999364
25,2,6.17799614917421e54,1.1244652862616906,0.8548555112451821
26,2,1.1258397461211488e54,-0.5456596901864055,2.0796815358791814
27,2,-7.82267423672106e53,-2.1602500141782834,3.2160540670048596
28,2,-1.2176362845713628e54,0.14393446560665668,0.9367797624350582
29,2,4.5505322232129576e52,3.363649373743503,1.7293507396498782
30,2,1.222319351325593e53,0.9636454347852138,1.0176089523711727
31,2,-3.417713310634562e52,0.5568884454687255,0.06329447808566022
32,2,9.34488368727554e51,0.4001738430578812,-0.8303794468929945
33,2,-5.752276107125915e51,0.2105593625863805,-0.5303686446053658
34,2,-2.3756927065311035e51,0.4762333993612907,-0.6870557378092429
35,2,-2.54539793037738e51,0.3256774232068674,0.4286074579867994
36,2,-1.0768527460508874e51,0.28814339976754344,-0.430292826890126
37,2,-2.383761112095213e50,1.4460693948775074,-3.05049241267516
38,2,-2.2564752521122086e48,222.57949616344916,14.339069621225706
39,2,-1.8403858854044473e51,-0.048897795003075645,-0.0008483739035724464
40,2,3.627868687667315e50,0.844403261173076,0.13991383173839853
41,2,-8.153609739493509e49,0.9030504173096405,0.15928463710637655
42,2,4.621779424483023e48,1.0704174358585283,-0.3001059189030391
43,2,8.627973743994935e47,0.3455723796044968,0.08876799995259904
44,2,-1.0823781542163742e48,1.1894970419823732,-0.15933700081212362
45,2,-1.0309184313311808e47,-0.4399707834990367,0.008310680059318381
46,2,7.09725402455361e46,0.9725226356781673,-0.1278697604926851
47,2,1.8309231331721183e46,0.9384587663974279,-0.5130805040886358
48,2,-2.2379482469487596e45,-0.08468536714587441,-0.8731096781988271
49,2,-1.7420770149884727e44,0.7609958532813188,-0.745321159810455
50,2,1.5109286623652628e44,1.006353879821306,-0.29504448357432933
51,2,-8.04763078777519e41,0.9688847976717497,-0.7981689998651658
52,2,4.918557684926399e40,2.304237361141959,-0.24317013969410572
53,2,3.5085484207814175e40,1.7442369309015113,-0.5403477705659468
54,2,5.1662257356282726e39,0.15970019617864895,-1.5736020997336335
55,2,7.66126693880054e40,0.9678641752033667,-1.0095355768097936
56,2,6.473915227178429e39,0.5365722269182759,-0.09516385413189023
57,2,9.465057335889246e39,-0.03631679582261615,0.003937154385863376
58,2,1.1246465336432775e39,0.9777187205711207,0.07453021938022865
59,2,-3.5085140942105513e37,1.304136689056919,0.705127195484496
60,2,-3.647003000345148e36,0.5834782337013782,1.455716188164526
61,2,-1.603486304020615e36,0.9838129051673724,-0.5260817135012875
62,2,9.253047737802363e34,1.1047296901203827,-2.113864562874581
63,2,1.0632088734320633e35,0.3776006442015684,-0.09997912174976135
64,2,-2.0383061219871077e34,1.149258797033605,-0.6589179333518426
65,2,1.7695634626958724e32,0.051620150925349106,-1.8735464590178277
66,2,-1.4015913092598566e32,1.1997455216418362,-0.08567074695299275
67,2,-5.253005977861007e31,0.993077809368443,-0.0671852240914408
68,2,6.968921752017213e29,1.090720185686657,-0.3564852098851784
69,2,1.2522751706359525e29,0.9659511142036473,-0.14626703565317054
70,2,-3.253627323599928e27,1.2989033161352548,-0.5157127354103275
71,2,-1.5901891451731632e27,0.915755743413199,-0.11615914387355769
72,2,6.019814269469985e25,0.8644749342136332,-0.9323533938912549
73,2,4.891412580666602e24,1.5833411148536427,-1.0242819086502024
74,2,2.5134343017545473e24,0.9665695171198937,-0.9128990478828528
75,2,4.185925062213185e22,0.8871071593948139,-0.5065828686517888
76,2,-7.714166344249267e21,1.0984632770222837,0.5596408812632996
77,2,-2.688100034146042e21,0.4253041400458554,-0.6898594615534926
78,2,-4.2791162628395355e20,0.9603944732937381,-0.895527506481893
79,2,-6.408389911954635e19,1.0705842987987906,-0.7894841811484513
80,2,-4.0729511537115075e18,1.4455053054939984,0.7607986985801459
81,2,-3.85249684882052e17,1.969367076141208,0.5921408353554886
82,2,5.517991226070472e16,1.3023539884935582,-2.205048825661164
83,2,4.622401444482771e16,1.037408030215529,-0.24126529169119074
84,2,1.528485773207886e15,1.0815891944764657,0.40036564272838016
85,2,2.2547709250306672e14,1.0463676048224038,-0.207778043772451
86,2,2.0825463440668797e13,0.9271059419753828,-0.1335991354439618
87,2,-2.439003074107877e12,1.1229030750839843,-0.2583826715328475
88,2,-5.712895956169734e11,1.0125953893253417,-0.18494827406788486
89,2,-1.3986287521095655e10,1.0000000000715525,-0.17784762800560464
90,2,0.9997659260090007,3.8250215522573165e-5,-0.001751334630499218
91,2,1.0001157751913332,-2.1255933473729418e-5,0.0008072657412039095
92,2,0.9998752955110879,3.580920854115731e-5,-0.000356991967603395
93,2,1.0001511327524366,-4.507795168597388e-5,0.00030895090914464157
94,2,0.999878945422622,3.7454011763372595e-5,-0.00021649040385529183
95,2,1.0000810216003009,-2.3498305772731416e-5,0.00021345480839419622
96,2,0.9999335604452491,2.0016558398397382e-5,-0.0001373427592080224
97,2,1.0000449854113176,-1.2854675831939981e-5,0.0001075154947169201
98,2,0.9999865117041227,3.6444008513233726e-6,-5.988241581500229e-5
99,2,1.000001319988225,2.1224719844268378e-7,3.394930719635263e-5
100,2,0.9999996865175471,-3.1348254239937554e-7,-1.4024940783153593e-5
101,2,0.9999999999999915,2.0816681711721863e-16,9.714451465470203e-16
102,2,1.0000003625293814,-3.625292582680462e-7,1.622563213052171e-5
103,2,0.999998671493502,4.755356098137791e-8,-3.058683465521269e-5
104,2,1.0000148617282913,4.255811471389778e-6,5.2283484227986614e-5
105,2,0.9999563011027045,-1.2905924140460973e-5,-8.181742551721022e-5
106,2,1.000051918409585,1.5868598299614375e-5,9.99012054281021e-5
107,2,0.9999471126917787,-1.4568145548777498e-5,-0.000173247866217064
108,2,1.000084547631906,2.7372981032742474e-5,0.00013524534931405837
109,2,0.999881634166644,-3.614249006904712e-5,-0.0001958134448844658
110,2,1.0000723052540088,3.0052914753686962e-5,-0.00010564076442766017
111,2,1.000051462376642,-2.1901776168589594e-5,0.0012844808190967847
112,2,-1.0269413807795612e10,-1.0000000000973406,-0.17603353214032874
113,2,2.935422976081481e13,-0.9998190432537788,-0.17577882741343492
114,2,5.559460252508946e14,-1.027315673670635,-0.18567810814085364
115,2,-3.210101682616345e15,-0.905123376890908,-0.11818730093610204
116,2,1.937439508612766e15,-0.22325556707914807,0.19819324873521874
117,2,2.9844416066313325e17,-1.0046883012103953,-0.1746669965134834
118,2,6.599836244795388e18,-1.0238675281095173,-0.25312361785122706
119,2,-6.8032405797601616e19,-0.9560963244193279,-0.31991641432408197
120,2,-3.096264675246888e21,-1.006838337758502,-0.06922610978674054
121,2,-6.23431409926671e22,-1.0379994229117775,-0.2372850556451353
122,2,9.054016062719221e23,-0.9644732994804363,-0.35040632926082094
123,2,-1.2864962992402358e24,0.3963019713069675,-0.2338845571235422
124,2,-5.686067499496138e25,-0.9518379639265885,-0.14046199170302304
125,2,-9.83707601476491e27,-1.002959140244881,-0.5923531966327656
126,2,-4.480973623380934e28,-0.917609201198041,-0.5922841168023258
127,2,1.4187149535360273e29,-0.7325239842098583,-0.5055258167072548
128,2,-4.1843398350273e28,1.0393720626999876,-1.156858922263289
129,2,2.2640600474717872e30,-1.0677033373473195,-0.2960196654090362
130,2,-5.069724698689722e31,-0.9636711387142616,-0.035340703594801494
131,2,-1.76778749113781e32,-1.097804381511795,-2.0454856405582307
132,2,-1.3767978066747246e34,-0.8742101347631285,0.1275872768263956
133,2,1.5436233869646857e34,-0.3856089899203805,-0.446375173258333
134,2,-1.4522263888298973e34,1.3888448737152543,-0.5197625512799804
135,2,-2.511531142178414e35,-1.1882353737823508,-0.13536360507653616
136,2,2.2229511729677456e36,-0.9280763191255189,-0.2825541590250034
137,2,-1.0921661014656375e37,-0.7462973575204727,0.6304338180133436
138,2,-4.969322398289306e37,-0.897055408657809,-0.24110625455098225
139,2,7.633588061638577e38,-0.9234481636267006,0.7896466245205208
140,2,9.333332948357081e39,-1.5598318520689645,-0.7675252478088066
141,2,5.3670827112466065e39,-4.026700133544001,-1.1192488343328788
142,2,-2.232972600377765e40,1.2177975585767034,-0.33232498440848757
143,2,-1.995039655066862e41,-0.745656008700619,-0.231723139402801
144,2,-3.0712958191385707e41,-1.4459494381792315,-0.6003759130669732
145,2,3.7929431196892956e42,-1.0189688999953903,-0.2727705833569661
146,2,-1.3612909749356514e43,-0.513445075833322,-0.43990699137545775
147,2,-5.189536150143935e42,-3.732331311042639,-4.194340662470948
148,2,1.7552488566290511e44,-0.15304518640859333,-0.7998854293711736
149,2,3.0517651691868913e44,-0.2120569687700032,-0.42332610370831786
150,2,-1.2511169407425125e46,-0.9804915074909194,-0.03150670169861446
151,2,2.5776418802234124e45,0.8111806284074871,-1.870205791552503
152,2,1.0250167960822893e47,-1.08129547094319,0.45644378009188175
153,2,-2.0540264231711422e47,-1.308656233684883,-0.43699044682572885
154,2,1.0384205924534513e47,3.2066871234560286,-4.498381127703544
155,2,-3.408333597533184e47,-0.24083313836170825,8.553260867543637
156,2,3.565024811054762e48,-1.2006802974513036,-0.1314167149353404
157,2,5.059956057447243e49,-0.5802620246438037,0.4589859809728784
158,2,1.6635504668351987e50,-0.4041941980800446,0.2111284874974789
159,2,-2.8885888192269673e51,-0.98406871323938,-0.31781934647495297
160,2,5.683329193977349e52,-1.054127316915057,-0.33173775559816776
161,2,-4.859426483556506e52,-0.2543152628423009,0.04409365468397372
162,2,-7.056252259766567e53,-1.0091193121719584,-0.18135470139380733
163,2,7.40840821271278e55,-0.9945060146693555,-0.23371050129337873
164,2,-5.635883351701641e55,-0.4178586097570277,1.220068695977631
165,2,-2.0263805921437633e57,-0.8697308778917605,0.22189513272275316
166,2,2.5879521167532778e57,-0.28832655836995286,-0.21167342094316874
167,2,-2.8742340717545575e59,-0.9984601816634283,-0.050556578600649354
168,2,2.951035361731954e59,-0.14443907622961163,-0.2508841903680083
169,2,4.996626008983617e59,-1.5257457971660269,0.9199106840378559
170,2,2.2112367702694745e60,-0.12439749970291045,0.6023438096596501
171,2,1.2371669761949491e60,0.16180748809374512,0.44290847740869443
172,2,-2.896171576288669e60,0.18394771879808863,3.4594140139703007
173,2,1.8886267484702036e61,-0.772065857648983,0.20892469528535185
174,2,3.568089273465202e61,-0.7123378827981728,-1.1777035866307184
175,2,-2.5087393440116128e62,-0.8853926690634938,0.7232653580419268
176,2,-1.0283504378586048e63,-0.03405422750939376,0.873347797647244
177,2,-3.575064615401325e62,0.3421719300497122,0.22278926841017438
178,2,1.5639227310252318e63,-0.8458552901075875,0.7321561387392197
179,2,5.4957658824221886e63,0.005042734346025894,0.9210590753185319
180,2,1.4807475036836083e63,0.8647792539523408,0.7337423259968816
181,2,-2.0213376633405165e62,0.7796325258660122,-1.0476010783496512
182,2,-1.5296943461560047e62,0.26204659275052505,0.3515197907255091
183,2,-1.0717707002603662e61,7.847495353357609,6.605418866834745
184,2,2.447161182790188e62,-0.015446244251599512,-0.07232242872842375
185,2,-1.4107351742374042e62,-0.8572164937554109,0.7849573971123986
186,2,-8.459830881143782e63,-0.9138919809399497,-0.0181099218650738
187,2,2.6489146590262074e64,-0.5565156046881865,0.49617691181590884
188,2,1.7227720712896666e64,0.028755267701964255,0.7389115258168755
189,2,-5.432930774701522e63,0.41531042080591224,0.7003532775828576
190,2,-9.326935142551535e63,-1.1980737593375546,0.9622848099278198
191,2,-6.228812199758397e64,-0.19513470296797342,0.8096778932920684
192,2,-4.0548311359759537e64,-0.29392590748188707,-0.6378381687347923
193,2,2.954885190621633e65,-0.8778092910622457,0.7336134991627714
194,2,1.2321458823236247e66,-0.007575171599611621,0.910521228016593
195,2,3.615606939705984e65,0.8271389316249739,0.741049974395661
196,2,-3.681276457300352e65,-0.770925847095146,0.5507751753042113
197,2,-1.1058517441104308e66,0.02644988888538852,0.8920476427019536
198,2,-3.7573886588662494e65,0.5808244894359699,0.6709152476980076
199,2,3.41322537672262e64,-0.7352858011098132,-1.8822854517530365
200,2,-1.0683444803407132e65,-0.14043732830980776,0.15910901681497705
201,2,4.9340744777348843e64,1.2320996987375874,1.14137080773432
1,3,1.7082367650933266e58,-2.785938245081993,-1.362234312119839
2,3,-9.152611754070605e58,0.40948937392068036,0.007004094071071336
3,3,-2.763680658193484e59,-0.3326878872104063,-0.1876849215986409
4,3,-1.0163791207388373e60,-0.1761098692999116,0.3071928482842888
5,3,-4.962354725034548e59,0.28448155334565606,0.4166028346271008
6,3,-2.7478222415494735e59,0.6819713965553476,1.4640249017515394
7,3,7.198612844592846e58,0.8656183715176256,-0.6133952554181468
8,3,3.012705796142531e58,0.5717024364512444,0.9272776508800616
9,3,1.0922593719196314e58,0.5297328840025838,1.2124403128042538
10,3,-2.4741813499513623e57,0.8426968404142161,0.08178655402812222
11,3,-7.762468329811002e56,0.44818220682776616,0.904586902300162
12,3,-7.895786259278185e56,-0.8534299648157357,1.2041992138205475
13,3,-4.1350064712338005e56,0.04858997182506509,1.9998524811578786
14,3,-1.1150882846634088e57,0.4619108506473998,0.9964263983429563
15,3,2.3872365586398064e55,4.931919218728556,-3.7957871621653974
16,3,1.116442246403382e56,1.3114005405807705,1.6008523156529724
17,3,-3.1725202699417977e56,0.1931863340772782,-1.344359885375378
18,3,4.750393084154098e56,-1.1975079706461915,-0.9858185422197383
19,3,-2.0327106439893683e57,-0.005195209399577526,-0.9961445264093132
20,3,-2.752947360122976e57,1.063196541310169,-1.0740146217452018
21,3,9.140903615736734e55,-0.00734322038398647,0.8590541908446084
22,3,1.1807937930993765e56,0.47442356424101473,0.8035646041581813
23,3,-5.55934399796237e54,1.077520695085579,0.6763486208962056
24,3,-9.801521628780308e54,0.44412270517406116,1.0474687559769857
25,3,-3.516046482210583e54,1.1599730468629106,1.500232240882379
26,3,-5.153931546936026e54,-0.09069355960603866,0.047065862244588134
27,3,3.3685882711087004e54,0.803374123497858,0.2481105220514226
28,3,3.3507579614615686e53,0.04739808238186681,0.012214075252838652
29,3,-1.4266670534235035e53,-0.2930237947932987,-0.02450893215956607
30,3,1.346921372207132e52,2.7926145535385163,0.14735122865871694
31,3,3.984904914320665e52,1.6550424219714233,1.145612064029101
32,3,5.518747315497228e52,0.14034439910723773,-0.07915678013822298
33,3,-1.0048751452314766e52,1.4906860498459007,0.0829240664323855
34,3,-2.6705133234053872e51,1.2724928164231517,-0.9712089192336787
35,3,2.1509528963333566e51,0.3107032035676499,0.22785401912233783
36,3,2.6959997519564882e51,-0.151380381555388,0.07576868588347112
37,3,5.122178797977523e50,0.8578964731325033,-0.1400117560085389
38,3,-2.431707446551982e50,0.24319330859424648,0.8073862942822244
39,3,1.5690966206671957e50,0.04976443729773794,1.1327421368118014
40,3,5.809704100908864e50,1.0664486276087288,1.0226060226278502
41,3,-2.4960806023760193e49,0.29152205107869633,0.12638863493700753
42,3,4.924428673683564e48,1.016196438552768,0.5221097072437886
43,3,1.3300341706096138e48,0.5139899094330599,-0.028369905416773516
44,3,-9.688302572818405e47,0.9870715530062241,-0.04628938829681064
45,3,-1.9221143074353493e47,0.5264587465854682,-0.13592802509419755
46,3,7.448555698404589e46,1.2894396326567392,0.4809133904594973