TITLE="BGK Re = 100.0"
VARIABLES = X,Y,Rho,U,V
ZONE
I = 201	J = 101
F=POINT
1,1,1.205608433708548,-0.0228526301200412,0.1696323032550165
2,1,1.1942990140231033,0.12418516148595803,-0.030482177954038046
3,1,1.1836183883198228,0.05172108629874746,-0.010148943564581177
4,1,1.199531909059803,0.08038471827892421,-0.020295846267282872
5,1,1.07824106225809,0.04248098913214316,-0.0019285460163980476
6,1,1.0178944975818953,0.013626269489938761,-0.004690059535428147
7,1,1.0034736919638911,0.002691837878161767,8.626473047253035e-5
8,1,1.000128785174867,0.00012876859138206118,-0.0004773641200820228
9,1,0.9999999999999993,6.245004513516509e-17,0.0
10,1,0.9999999999999993,6.245004513516509e-17,0.0
11,1,0.9999999999999993,6.245004513516509e-17,0.0
12,1,0.9999999999999993,6.245004513516509e-17,0.0
13,1,0.9999999999999993,6.245004513516509e-17,0.0
14,1,0.9999999999999993,6.245004513516509e-17,0.0
15,1,0.9999999999999993,6.245004513516509e-17,0.0
16,1,0.9999999999999993,6.245004513516509e-17,0.0
17,1,0.9999999999999993,6.245004513516509e-17,0.0
18,1,0.9999999999999993,6.245004513516509e-17,0.0
19,1,0.9999999999999993,6.245004513516509e-17,0.0
20,1,0.9999999999999993,6.245004513516509e-17,0.0
21,1,0.9999999999999993,6.245004513516509e-17,0.0
22,1,0.9999999999999993,6.245004513516509e-17,0.0
23,1,0.9999999999999993,6.245004513516509e-17,0.0
24,1,0.9999999999999993,6.245004513516509e-17,0.0
25,1,0.9999999999999993,6.245004513516509e-17,0.0
26,1,0.9999999999999993,6.245004513516509e-17,0.0
27,1,0.9999999999999993,6.245004513516509e-17,0.0
28,1,0.9999999999999993,6.245004513516509e-17,0.0
29,1,0.9999999999999993,6.245004513516509e-17,0.0
30,1,0.9999999999999993,6.245004513516509e-17,0.0
31,1,0.9999999999999993,6.245004513516509e-17,0.0
32,1,0.9999999999999993,6.245004513516509e-17,0.0
33,1,0.9999999999999993,6.245004513516509e-17,0.0
34,1,0.9999999999999993,6.245004513516509e-17,0.0
35,1,0.9999999999999993,6.245004513516509e-17,0.0
36,1,0.9999999999999993,6.245004513516509e-17,0.0
37,1,0.9999999999999993,6.245004513516509e-17,0.0
38,1,0.9999999999999993,6.245004513516509e-17,0.0
39,1,0.9999999999999993,6.245004513516509e-17,0.0
40,1,0.9999999999999993,6.245004513516509e-17,0.0
41,1,0.9999999999999993,6.245004513516509e-17,0.0
42,1,0.9999999999999993,6.245004513516509e-17,0.0
43,1,0.9999999999999993,6.245004513516509e-17,0.0
44,1,0.9999999999999993,6.245004513516509e-17,0.0
45,1,0.9999999999999993,6.245004513516509e-17,0.0
46,1,0.9999999999999993,6.245004513516509e-17,0.0
47,1,0.9999999999999993,6.245004513516509e-17,0.0
48,1,0.9999999999999993,6.245004513516509e-17,0.0
49,1,0.9999999999999993,6.245004513516509e-17,0.0
50,1,0.9999999999999993,6.245004513516509e-17,0.0
51,1,0.9999999999999993,6.245004513516509e-17,0.0
52,1,0.9999999999999993,6.245004513516509e-17,0.0
53,1,0.9999999999999993,6.245004513516509e-17,0.0
54,1,0.9999999999999993,6.245004513516509e-17,0.0
55,1,0.9999999999999993,6.245004513516509e-17,0.0
56,1,0.9999999999999993,6.245004513516509e-17,0.0
57,1,0.9999999999999993,6.245004513516509e-17,0.0
58,1,0.9999999999999993,6.245004513516509e-17,0.0
59,1,0.9999999999999993,6.245004513516509e-17,0.0
60,1,0.9999999999999993,6.245004513516509e-17,0.0
61,1,0.9999999999999993,6.245004513516509e-17,0.0
62,1,0.9999999999999993,6.245004513516509e-17,0.0
63,1,0.9999999999999993,6.245004513516509e-17,0.0
64,1,0.9999999999999993,6.245004513516509e-17,0.0
65,1,0.9999999999999993,6.245004513516509e-17,0.0
66,1,0.9999999999999993,6.245004513516509e-17,0.0
67,1,0.9999999999999993,6.245004513516509e-17,0.0
68,1,0.9999999999999993,6.245004513516509e-17,0.0
69,1,0.9999999999999993,6.245004513516509e-17,0.0
70,1,0.9999999999999993,6.245004513516509e-17,0.0
71,1,0.9999999999999993,6.245004513516509e-17,0.0
72,1,0.9999999999999993,6.245004513516509e-17,0.0
73,1,0.9999999999999993,6.245004513516509e-17,0.0
74,1,0.9999999999999993,6.245004513516509e-17,0.0
75,1,0.9999999999999993,6.245004513516509e-17,0.0
76,1,0.9999999999999993,6.245004513516509e-17,0.0
77,1,0.9999999999999993,6.245004513516509e-17,0.0
78,1,0.9999999999999993,6.245004513516509e-17,0.0
79,1,0.9999999999999993,6.245004513516509e-17,0.0
80,1,0.9999999999999993,6.245004513516509e-17,0.0
81,1,0.9999999999999993,6.245004513516509e-17,0.0
82,1,0.9999999999999993,6.245004513516509e-17,0.0
83,1,0.9999999999999993,6.245004513516509e-17,0.0
84,1,0.9999999999999993,6.245004513516509e-17,0.0
85,1,0.9999999999999993,6.245004513516509e-17,0.0
86,1,0.9999999999999993,6.245004513516509e-17,0.0
87,1,0.9999999999999993,6.245004513516509e-17,0.0
88,1,0.9999999999999993,6.245004513516509e-17,0.0
89,1,0.9999999999999993,6.245004513516509e-17,0.0
90,1,0.9999999999999993,6.245004513516509e-17,0.0
91,1,0.9999999999999993,6.245004513516509e-17,0.0
92,1,0.9999999999999993,6.245004513516509e-17,0.0
93,1,0.9999999999999993,6.245004513516509e-17,0.0
94,1,0.9999999999999993,6.245004513516509e-17,0.0
95,1,0.9999999999999993,6.245004513516509e-17,0.0
96,1,0.9999999999999993,6.245004513516509e-17,0.0
97,1,0.9999999999999993,6.245004513516509e-17,0.0
98,1,0.9999999999999993,6.245004513516509e-17,0.0
99,1,0.9999999999999993,6.245004513516509e-17,0.0
100,1,0.9999999999999993,6.245004513516509e-17,0.0
101,1,0.9999999999999993,6.245004513516509e-17,0.0
102,1,0.9999999999999993,6.245004513516509e-17,0.0
103,1,0.9999999999999993,6.245004513516509e-17,0.0
104,1,0.9999999999999993,6.245004513516509e-17,0.0
105,1,0.9999999999999993,6.245004513516509e-17,0.0
106,1,0.9999999999999993,6.245004513516509e-17,0.0
107,1,0.9999999999999993,6.245004513516509e-17,0.0
108,1,0.9999999999999993,6.245004513516509e-17,0.0
109,1,0.9999999999999993,6.245004513516509e-17,0.0
110,1,0.9999999999999993,6.245004513516509e-17,0.0
111,1,0.9999999999999993,6.245004513516509e-17,0.0
112,1,0.9999999999999993,6.245004513516509e-17,0.0
113,1,0.9999999999999993,6.245004513516509e-17,0.0
114,1,0.9999999999999993,6.245004513516509e-17,0.0
115,1,0.9999999999999993,6.245004513516509e-17,0.0
116,1,0.9999999999999993,6.245004513516509e-17,0.0
117,1,0.9999999999999993,6.245004513516509e-17,0.0
118,1,0.9999999999999993,6.245004513516509e-17,0.0
119,1,0.9999999999999993,6.245004513516509e-17,0.0
120,1,0.9999999999999993,6.245004513516509e-17,0.0
121,1,0.9999999999999993,6.245004513516509e-17,0.0
122,1,0.9999999999999993,6.245004513516509e-17,0.0
123,1,0.9999999999999993,6.245004513516509e-17,0.0
124,1,0.9999999999999993,6.245004513516509e-17,0.0
125,1,0.9999999999999993,6.245004513516509e-17,0.0
126,1,0.9999999999999993,6.245004513516509e-17,0.0
127,1,0.9999999999999993,6.245004513516509e-17,0.0
128,1,0.9999999999999993,6.245004513516509e-17,0.0
129,1,0.9999999999999993,6.245004513516509e-17,0.0
130,1,0.9999999999999993,6.245004513516509e-17,0.0
131,1,0.9999999999999993,6.245004513516509e-17,0.0
132,1,0.9999999999999993,6.245004513516509e-17,0.0
133,1,0.9999999999999993,6.245004513516509e-17,0.0
134,1,0.9999999999999993,6.245004513516509e-17,0.0
135,1,0.9999999999999993,6.245004513516509e-17,0.0
136,1,0.9999999999999993,6.245004513516509e-17,0.0
137,1,0.9999999999999993,6.245004513516509e-17,0.0
138,1,0.9999999999999993,6.245004513516509e-17,0.0
139,1,0.9999999999999993,6.245004513516509e-17,0.0
140,1,0.9999999999999993,6.245004513516509e-17,0.0
141,1,0.9999999999999993,6.245004513516509e-17,0.0
142,1,0.9999999999999993,6.245004513516509e-17,0.0
143,1,0.9999999999999993,6.245004513516509e-17,0.0
144,1,0.9999999999999993,6.245004513516509e-17,0.0
145,1,0.9999999999999993,6.245004513516509e-17,0.0
146,1,0.9999999999999993,6.245004513516509e-17,0.0
147,1,0.9999999999999993,6.245004513516509e-17,0.0
148,1,0.9999999999999993,6.245004513516509e-17,0.0
149,1,0.9999999999999993,6.245004513516509e-17,0.0
150,1,0.9999999999999993,6.245004513516509e-17,0.0
151,1,0.9999999999999993,6.245004513516509e-17,0.0
152,1,0.9999999999999993,6.245004513516509e-17,0.0
153,1,0.9999999999999993,6.245004513516509e-17,0.0
154,1,0.9999999999999993,6.245004513516509e-17,0.0
155,1,0.9999999999999993,6.245004513516509e-17,0.0
156,1,0.9999999999999993,6.245004513516509e-17,0.0
157,1,0.9999999999999993,6.245004513516509e-17,0.0
158,1,0.9999999999999993,6.245004513516509e-17,0.0
159,1,0.9999999999999993,6.245004513516509e-17,0.0
160,1,0.9999999999999993,6.245004513516509e-17,0.0
161,1,0.9999999999999993,6.245004513516509e-17,0.0
162,1,0.9999999999999993,6.245004513516509e-17,0.0
163,1,0.9999999999999993,6.245004513516509e-17,0.0
164,1,0.9999999999999993,6.245004513516509e-17,0.0
165,1,0.9999999999999993,6.245004513516509e-17,0.0
166,1,0.9999999999999993,6.245004513516509e-17,0.0
167,1,0.9999999999999993,6.245004513516509e-17,0.0
168,1,0.9999999999999993,6.245004513516509e-17,0.0
169,1,0.9999999999999993,6.245004513516509e-17,0.0
170,1,0.9999999999999993,6.245004513516509e-17,0.0
171,1,0.9999999999999993,6.245004513516509e-17,0.0
172,1,0.9999999999999993,6.245004513516509e-17,0.0
173,1,0.9999999999999993,6.245004513516509e-17,0.0
174,1,0.9999999999999993,6.245004513516509e-17,0.0
175,1,0.9999999999999993,6.245004513516509e-17,0.0
176,1,0.9999999999999993,6.245004513516509e-17,0.0
177,1,0.9999999999999993,6.245004513516509e-17,0.0
178,1,0.9999999999999993,6.245004513516509e-17,0.0
179,1,0.9999999999999993,6.245004513516509e-17,0.0
180,1,0.9999999999999993,6.245004513516509e-17,0.0
181,1,0.9999999999999993,6.245004513516509e-17,0.0
182,1,0.9999999999999993,6.245004513516509e-17,0.0
183,1,0.9999999999999993,6.245004513516509e-17,0.0
184,1,0.9999999999999993,6.245004513516509e-17,0.0
185,1,0.9999999999999993,6.245004513516509e-17,0.0
186,1,0.9999999999999993,6.245004513516509e-17,0.0
187,1,0.9999999999999993,6.245004513516509e-17,0.0
188,1,0.9999999999999993,6.245004513516509e-17,0.0
189,1,0.9999999999999993,6.245004513516509e-17,0.0
190,1,0.9999999999999993,6.245004513516509e-17,0.0
191,1,0.9999999999999993,6.245004513516509e-17,0.0
192,1,0.9999999999999993,6.245004513516509e-17,0.0
193,1,0.9999999999999993,6.245004513516509e-17,0.0
194,1,0.9999226883741845,7.73176033645792e-5,0.0005018336107148864
195,1,0.9976063584421677,0.0017489030679507804,-0.00032254820680619535
196,1,0.9922375026967842,0.006682430330938861,0.0021185750841216486
197,1,0.9725230876926533,0.017515576988904803,-0.000762565879390143
198,1,0.9032337056606066,0.04689046803197663,0.010301211069515818
199,1,0.8486476837748291,0.05486087691658722,0.009764661381534095
200,1,0.8247350341820813,0.09202837622166171,0.07441856146602141
201,1,0.8428870255357432,-0.060407777608252354,-0.2288067924250387
1,2,1.1819809144856726,0.10432852382877833,-0.14533882353144278
2,2,1.2018240562764937,0.15075920255838446,0.007908638067066528
3,2,1.18300067249577,0.10521142277786595,-0.02996786311716704
4,2,1.1829468304512734,0.11170987105562918,-0.024934937952649876
5,2,1.1086687341460288,0.06129345047454639,0.0038073536549756625
6,2,1.0297808464790916,0.02176856843649387,0.0007498891279696832
7,2,1.0041051408256256,0.0032633400123545787,0.0019103390004323584
8,2,1.0000582605220514,5.8257127961308096e-5,-0.00018127559305699802
9,2,0.9999999999999996,2.844946500601965e-16,9.714451465470125e-17
10,2,0.9999999999999996,2.844946500601965e-16,9.714451465470125e-17
11,2,0.9999999999999996,2.844946500601965e-16,9.714451465470125e-17
12,2,0.9999999999999996,2.844946500601965e-16,9.714451465470125e-17
13,2,0.9999999999999996,2.844946500601965e-16,9.714451465470125e-17
14,2,0.9999999999999996,2.844946500601965e-16,9.714451465470125e-17
15,2,0.9999999999999996,2.844946500601965e-16,9.714451465470125e-17
16,2,0.9999999999999996,2.844946500601965e-16,9.714451465470125e-17
17,2,0.9999999999999996,2.844946500601965e-16,9.714451465470125e-17
18,2,0.9999999999999996,2.844946500601965e-16,9.714451465470125e-17
19,2,0.9999999999999996,2.844946500601965e-16,9.714451465470125e-17
20,2,0.9999999999999996,2.844946500601965e-16,9.714451465470125e-17
21,2,0.9999999999999996,2.844946500601965e-16,9.714451465470125e-17
22,2,0.9999999999999996,2.844946500601965e-16,9.714451465470125e-17
23,2,0.9999999999999996,2.844946500601965e-16,9.714451465470125e-17
24,2,0.9999999999999996,2.844946500601965e-16,9.714451465470125e-17
25,2,0.9999999999999996,2.844946500601965e-16,9.714451465470125e-17
26,2,0.9999999999999996,2.844946500601965e-16,9.714451465470125e-17
27,2,0.9999999999999996,2.844946500601965e-16,9.714451465470125e-17
28,2,0.9999999999999996,2.844946500601965e-16,9.714451465470125e-17
29,2,0.9999999999999996,2.844946500601965e-16,9.714451465470125e-17
30,2,0.9999999999999996,2.844946500601965e-16,9.714451465470125e-17
31,2,0.9999999999999996,2.844946500601965e-16,9.714451465470125e-17
32,2,0.9999999999999996,2.844946500601965e-16,9.714451465470125e-17
33,2,0.9999999999999996,2.844946500601965e-16,9.714451465470125e-17
34,2,0.9999999999999996,2.844946500601965e-16,9.714451465470125e-17
35,2,0.9999999999999996,2.844946500601965e-16,9.714451465470125e-17
36,2,0.9999999999999996,2.844946500601965e-16,9.714451465470125e-17
37,2,0.9999999999999996,2.844946500601965e-16,9.714451465470125e-17
38,2,0.9999999999999996,2.844946500601965e-16,9.714451465470125e-17
39,2,0.9999999999999996,2.844946500601965e-16,9.714451465470125e-17
40,2,0.9999999999999996,2.844946500601965e-16,9.714451465470125e-17
41,2,0.9999999999999996,2.844946500601965e-16,9.714451465470125e-17
42,2,0.9999999999999996,2.844946500601965e-16,9.714451465470125e-17
43,2,0.9999999999999996,2.844946500601965e-16,9.714451465470125e-17
44,2,0.9999999999999996,2.844946500601965e-16,9.714451465470125e-17
45,2,0.9999999999999996,2.844946500601965e-16,9.714451465470125e-17
46,2,0.9999999999999996,2.844946500601965e-16,9.714451465470125e-17
47,2,0.9999999999999996,2.844946500601965e-16,9.714451465470125e-17
48,2,0.9999999999999996,2.844946500601965e-16,9.714451465470125e-17
49,2,0.9999999999999996,2.844946500601965e-16,9.714451465470125e-17
50,2,0.9999999999999996,2.844946500601965e-16,9.714451465470125e-17
51,2,0.9999999999999996,2.844946500601965e-16,9.714451465470125e-17
52,2,0.9999999999999996,2.844946500601965e-16,9.714451465470125e-17
53,2,0.9999999999999996,2.844946500601965e-16,9.714451465470125e-17
54,2,0.9999999999999996,2.844946500601965e-16,9.714451465470125e-17
55,2,0.9999999999999996,2.844946500601965e-16,9.714451465470125e-17
56,2,0.9999999999999996,2.844946500601965e-16,9.714451465470125e-17
57,2,0.9999999999999996,2.844946500601965e-16,9.714451465470125e-17
58,2,0.9999999999999996,2.844946500601965e-16,9.714451465470125e-17
59,2,0.9999999999999996,2.844946500601965e-16,9.714451465470125e-17
60,2,0.9999999999999996,2.844946500601965e-16,9.714451465470125e-17
61,2,0.9999999999999996,2.844946500601965e-16,9.714451465470125e-17
62,2,0.9999999999999996,2.844946500601965e-16,9.714451465470125e-17
63,2,0.9999999999999996,2.844946500601965e-16,9.714451465470125e-17
64,2,0.9999999999999996,2.844946500601965e-16,9.714451465470125e-17
65,2,0.9999999999999996,2.844946500601965e-16,9.714451465470125e-17
66,2,0.9999999999999996,2.844946500601965e-16,9.714451465470125e-17
67,2,0.9999999999999996,2.844946500601965e-16,9.714451465470125e-17
68,2,0.9999999999999996,2.844946500601965e-16,9.714451465470125e-17
69,2,0.9999999999999996,2.844946500601965e-16,9.714451465470125e-17
70,2,0.9999999999999996,2.844946500601965e-16,9.714451465470125e-17
71,2,0.9999999999999996,2.844946500601965e-16,9.714451465470125e-17
72,2,0.9999999999999996,2.844946500601965e-16,9.714451465470125e-17
73,2,0.9999999999999996,2.844946500601965e-16,9.714451465470125e-17
74,2,0.9999999999999996,2.844946500601965e-16,9.714451465470125e-17
75,2,0.9999999999999996,2.844946500601965e-16,9.714451465470125e-17
76,2,0.9999999999999996,2.844946500601965e-16,9.714451465470125e-17
77,2,0.9999999999999996,2.844946500601965e-16,9.714451465470125e-17
78,2,0.9999999999999996,2.844946500601965e-16,9.714451465470125e-17
79,2,0.9999999999999996,2.844946500601965e-16,9.714451465470125e-17
80,2,0.9999999999999996,2.844946500601965e-16,9.714451465470125e-17
81,2,0.9999999999999996,2.844946500601965e-16,9.714451465470125e-17
82,2,0.9999999999999996,2.844946500601965e-16,9.714451465470125e-17
83,2,0.9999999999999996,2.844946500601965e-16,9.714451465470125e-17
84,2,0.9999999999999996,2.844946500601965e-16,9.714451465470125e-17
85,2,0.9999999999999996,2.844946500601965e-16,9.714451465470125e-17
86,2,0.9999999999999996,2.844946500601965e-16,9.714451465470125e-17
87,2,0.9999999999999996,2.844946500601965e-16,9.714451465470125e-17
88,2,0.9999999999999996,2.844946500601965e-16,9.714451465470125e-17
89,2,0.9999999999999996,2.844946500601965e-16,9.714451465470125e-17
90,2,0.9999999999999996,2.844946500601965e-16,9.714451465470125e-17
91,2,0.9999999999999996,2.844946500601965e-16,9.714451465470125e-17
92,2,0.9999999999999996,2.844946500601965e-16,9.714451465470125e-17
93,2,0.9999999999999996,2.844946500601965e-16,9.714451465470125e-17
94,2,0.9999999999999996,2.844946500601965e-16,9.714451465470125e-17
95,2,0.9999999999999996,2.844946500601965e-16,9.714451465470125e-17
96,2,0.9999999999999996,2.844946500601965e-16,9.714451465470125e-17
97,2,0.9999999999999996,2.844946500601965e-16,9.714451465470125e-17
98,2,0.9999999999999996,2.844946500601965e-16,9.714451465470125e-17
99,2,0.9999999999999996,2.844946500601965e-16,9.714451465470125e-17
100,2,0.9999999999999996,2.844946500601965e-16,9.714451465470125e-17
101,2,0.9999999999999996,2.844946500601965e-16,9.714451465470125e-17
102,2,0.9999999999999996,2.844946500601965e-16,9.714451465470125e-17
103,2,0.9999999999999996,2.844946500601965e-16,9.714451465470125e-17
104,2,0.9999999999999996,2.844946500601965e-16,9.714451465470125e-17
105,2,0.9999999999999996,2.844946500601965e-16,9.714451465470125e-17
106,2,0.9999999999999996,2.844946500601965e-16,9.714451465470125e-17
107,2,0.9999999999999996,2.844946500601965e-16,9.714451465470125e-17
108,2,0.9999999999999996,2.844946500601965e-16,9.714451465470125e-17
109,2,0.9999999999999996,2.844946500601965e-16,9.714451465470125e-17
110,2,0.9999999999999996,2.844946500601965e-16,9.714451465470125e-17
111,2,0.9999999999999996,2.844946500601965e-16,9.714451465470125e-17
112,2,0.9999999999999996,2.844946500601965e-16,9.714451465470125e-17
113,2,0.9999999999999996,2.844946500601965e-16,9.714451465470125e-17
114,2,0.9999999999999996,2.844946500601965e-16,9.714451465470125e-17
115,2,0.9999999999999996,2.844946500601965e-16,9.714451465470125e-17
116,2,0.9999999999999996,2.844946500601965e-16,9.714451465470125e-17
117,2,0.9999999999999996,2.844946500601965e-16,9.714451465470125e-17
118,2,0.9999999999999996,2.844946500601965e-16,9.714451465470125e-17
119,2,0.9999999999999996,2.844946500601965e-16,9.714451465470125e-17
120,2,0.9999999999999996,2.844946500601965e-16,9.714451465470125e-17
121,2,0.9999999999999996,2.844946500601965e-16,9.714451465470125e-17
122,2,0.9999999999999996,2.844946500601965e-16,9.714451465470125e-17
123,2,0.9999999999999996,2.844946500601965e-16,9.714451465470125e-17
124,2,0.9999999999999996,2.844946500601965e-16,9.714451465470125e-17
125,2,0.9999999999999996,2.844946500601965e-16,9.714451465470125e-17
126,2,0.9999999999999996,2.844946500601965e-16,9.714451465470125e-17
127,2,0.9999999999999996,2.844946500601965e-16,9.714451465470125e-17
128,2,0.9999999999999996,2.844946500601965e-16,9.714451465470125e-17
129,2,0.9999999999999996,2.844946500601965e-16,9.714451465470125e-17
130,2,0.9999999999999996,2.844946500601965e-16,9.714451465470125e-17
131,2,0.9999999999999996,2.844946500601965e-16,9.714451465470125e-17
132,2,0.9999999999999996,2.844946500601965e-16,9.714451465470125e-17
133,2,0.9999999999999996,2.844946500601965e-16,9.714451465470125e-17
134,2,0.9999999999999996,2.844946500601965e-16,9.714451465470125e-17
135,2,0.9999999999999996,2.844946500601965e-16,9.714451465470125e-17
136,2,0.9999999999999996,2.844946500601965e-16,9.714451465470125e-17
137,2,0.9999999999999996,2.844946500601965e-16,9.714451465470125e-17
138,2,0.9999999999999996,2.844946500601965e-16,9.714451465470125e-17
139,2,0.9999999999999996,2.844946500601965e-16,9.714451465470125e-17
140,2,0.9999999999999996,2.844946500601965e-16,9.714451465470125e-17
141,2,0.9999999999999996,2.844946500601965e-16,9.714451465470125e-17
142,2,0.9999999999999996,2.844946500601965e-16,9.714451465470125e-17
143,2,0.9999999999999996,2.844946500601965e-16,9.714451465470125e-17
144,2,0.9999999999999996,2.844946500601965e-16,9.714451465470125e-17
145,2,0.9999999999999996,2.844946500601965e-16,9.714451465470125e-17
146,2,0.9999999999999996,2.844946500601965e-16,9.714451465470125e-17
147,2,0.9999999999999996,2.844946500601965e-16,9.714451465470125e-17
148,2,0.9999999999999996,2.844946500601965e-16,9.714451465470125e-17
149,2,0.9999999999999996,2.844946500601965e-16,9.714451465470125e-17
150,2,0.9999999999999996,2.844946500601965e-16,9.714451465470125e-17
151,2,0.9999999999999996,2.844946500601965e-16,9.714451465470125e-17
152,2,0.9999999999999996,2.844946500601965e-16,9.714451465470125e-17
153,2,0.9999999999999996,2.844946500601965e-16,9.714451465470125e-17
154,2,0.9999999999999996,2.844946500601965e-16,9.714451465470125e-17
155,2,0.9999999999999996,2.844946500601965e-16,9.714451465470125e-17
156,2,0.9999999999999996,2.844946500601965e-16,9.714451465470125e-17
157,2,0.9999999999999996,2.844946500601965e-16,9.714451465470125e-17
158,2,0.9999999999999996,2.844946500601965e-16,9.714451465470125e-17
159,2,0.9999999999999996,2.844946500601965e-16,9.714451465470125e-17
160,2,0.9999999999999996,2.844946500601965e-16,9.714451465470125e-17
161,2,0.9999999999999996,2.844946500601965e-16,9.714451465470125e-17
162,2,0.9999999999999996,2.844946500601965e-16,9.714451465470125e-17
163,2,0.9999999999999996,2.844946500601965e-16,9.714451465470125e-17
164,2,0.9999999999999996,2.844946500601965e-16,9.714451465470125e-17
165,2,0.9999999999999996,2.844946500601965e-16,9.714451465470125e-17
166,2,0.9999999999999996,2.844946500601965e-16,9.714451465470125e-17
167,2,0.9999999999999996,2.844946500601965e-16,9.714451465470125e-17
168,2,0.9999999999999996,2.844946500601965e-16,9.714451465470125e-17
169,2,0.9999999999999996,2.844946500601965e-16,9.714451465470125e-17
170,2,0.9999999999999996,2.844946500601965e-16,9.714451465470125e-17
171,2,0.9999999999999996,2.844946500601965e-16,9.714451465470125e-17
172,2,0.9999999999999996,2.844946500601965e-16,9.714451465470125e-17
173,2,0.9999999999999996,2.844946500601965e-16,9.714451465470125e-17
174,2,0.9999999999999996,2.844946500601965e-16,9.714451465470125e-17
175,2,0.9999999999999996,2.844946500601965e-16,9.714451465470125e-17
176,2,0.9999999999999996,2.844946500601965e-16,9.714451465470125e-17
177,2,0.9999999999999996,2.844946500601965e-16,9.714451465470125e-17
178,2,0.9999999999999996,2.844946500601965e-16,9.714451465470125e-17
179,2,0.9999999999999996,2.844946500601965e-16,9.714451465470125e-17
180,2,0.9999999999999996,2.844946500601965e-16,9.714451465470125e-17
181,2,0.9999999999999996,2.844946500601965e-16,9.714451465470125e-17
182,2,0.9999999999999996,2.844946500601965e-16,9.714451465470125e-17
183,2,0.9999999999999996,2.844946500601965e-16,9.714451465470125e-17
184,2,0.9999999999999996,2.844946500601965e-16,9.714451465470125e-17
185,2,0.9999999999999996,2.844946500601965e-16,9.714451465470125e-17
186,2,0.9999999999999996,2.844946500601965e-16,9.714451465470125e-17
187,2,0.9999999999999996,2.844946500601965e-16,9.714451465470125e-17
188,2,0.9999999999999996,2.844946500601965e-16,9.714451465470125e-17
189,2,0.9999999999999996,2.844946500601965e-16,9.714451465470125e-17
190,2,0.9999999999999996,2.844946500601965e-16,9.714451465470125e-17
191,2,0.9999999999999996,2.844946500601965e-16,9.714451465470125e-17
192,2,0.9999999999999996,2.844946500601965e-16,9.714451465470125e-17
193,2,0.9999999999999996,2.844946500601965e-16,9.714451465470125e-17
194,2,1.000034057388674,-3.405622880768829e-5,0.0002271359825783342
195,2,0.9981249852382663,0.0013790957508984154,-0.0016258101858042952
196,2,0.9871322461581813,0.009118966725480354,0.00013469724322975608
197,2,0.9510186225175538,0.030169963861869823,-0.003833976222982242
198,2,0.8958328698257364,0.06844495728161987,0.005945333702299525
199,2,0.8507398829720259,0.09775472643956684,0.024839900936022015
200,2,0.8217930721624165,0.08918954505068961,-0.015254995471512808
201,2,0.8202426718518471,0.06164861773051168,0.29088559526198837
1,3,1.1765610586374016,0.0788455269067749,0.06230143430296053
2,3,1.1903462385223667,0.12710273238356265,0.011658743140313604
3,3,1.2128560476903256,0.10040862481380047,-0.01081608538148697
4,3,1.203659453337474,0.09881044317215944,-0.0026921657008928796
5,3,1.116874389670523,0.05822106281190427,-0.006328450624351459
6,3,1.0238313079386152,0.01785252245851982,-0.0033329252787383007
7,3,0.9996720836180901,-0.0004919993776069023,-0.00046000501482746736
8,3,0.9998054346480627,-0.00019460321497990075,-0.00022597980473284588
9,3,0.9999999999999998,1.8041124150158799e-16,-1.387778780781446e-17
10,3,0.9999999999999998,1.8041124150158799e-16,-1.387778780781446e-17
11,3,0.9999999999999998,1.8041124150158799e-16,-1.387778780781446e-17
12,3,0.9999999999999998,1.8041124150158799e-16,-1.387778780781446e-17
13,3,0.9999999999999998,1.8041124150158799e-16,-1.387778780781446e-17
14,3,0.9999999999999998,1.8041124150158799e-16,-1.387778780781446e-17
15,3,0.9999999999999998,1.8041124150158799e-16,-1.387778780781446e-17
16,3,0.9999999999999998,1.8041124150158799e-16,-1.387778780781446e-17
17,3,0.9999999999999998,1.8041124150158799e-16,-1.387778780781446e-17
18,3,0.9999999999999998,1.8041124150158799e-16,-1.387778780781446e-17
19,3,0.9999999999999998,1.8041124150158799e-16,-1.387778780781446e-17
20,3,0.9999999999999998,1.8041124150158799e-16,-1.387778780781446e-17
21,3,0.9999999999999998,1.8041124150158799e-16,-1.387778780781446e-17
22,3,0.9999999999999998,1.8041124150158799e-16,-1.387778780781446e-17
23,3,0.9999999999999998,1.8041124150158799e-16,-1.387778780781446e-17
24,3,0.9999999999999998,1.8041124150158799e-16,-1.387778780781446e-17
25,3,0.9999999999999998,1.8041124150158799e-16,-1.387778780781446e-17
26,3,0.9999999999999998,1.8041124150158799e-16,-1.387778780781446e-17
27,3,0.9999999999999998,1.8041124150158799e-16,-1.387778780781446e-17
28,3,0.9999999999999998,1.8041124150158799e-16,-1.387778780781446e-17
29,3,0.9999999999999998,1.8041124150158799e-16,-1.387778780781446e-17
30,3,0.9999999999999998,1.8041124150158799e-16,-1.387778780781446e-17
31,3,0.9999999999999998,1.8041124150158799e-16,-1.387778780781446e-17
32,3,0.9999999999999998,1.8041124150158799e-16,-1.387778780781446e-17
33,3,0.9999999999999998,1.8041124150158799e-16,-1.387778780781446e-17
34,3,0.9999999999999998,1.8041124150158799e-16,-1.387778780781446e-17
35,3,0.9999999999999998,1.8041124150158799e-16,-1.387778780781446e-17
36,3,0.9999999999999998,1.8041124150158799e-16,-1.387778780781446e-17
37,3,0.9999999999999998,1.8041124150158799e-16,-1.387778780781446e-17
38,3,0.9999999999999998,1.8041124150158799e-16,-1.387778780781446e-17
39,3,0.9999999999999998,1.8041124150158799e-16,-1.387778780781446e-17
40,3,0.9999999999999998,1.8041124150158799e-16,-1.387778780781446e-17
41,3,0.9999999999999998,1.8041124150158799e-16,-1.387778780781446e-17
42,3,0.9999999999999998,1.8041124150158799e-16,-1.387778780781446e-17
43,3,0.9999999999999998,1.8041124150158799e-16,-1.387778780781446e-17
44,3,0.9999999999999998,1.8041124150158799e-16,-1.387778780781446e-17
45,3,0.9999999999999998,1.8041124150158799e-16,-1.387778780781446e-17
46,3,0.9999999999999998,1.8041124150158799e-16,-1.387778780781446e-17
47,3,0.9999999999999998,1.8041124150158799e-16,-1.387778780781446e-17
48,3,0.9999999999999998,1.8041124150158799e-16,-1.387778780781446e-17
49,3,0.9999999999999998,1.8041124150158799e-16,-1.387778780781446e-17
50,3,0.9999999999999998,1.8041124150158799e-16,-1.387778780781446e-17
51,3,0.9999999999999998,1.8041124150158799e-16,-1.387778780781446e-17
52,3,0.9999999999999998,1.8041124150158799e-16,-1.387778780781446e-17
53,3,0.9999999999999998,1.8041124150158799e-16,-1.387778780781446e-17
54,3,0.9999999999999998,1.8041124150158799e-16,-1.387778780781446e-17
55,3,0.9999999999999998,1.8041124150158799e-16,-1.387778780781446e-17
56,3,0.9999999999999998,1.8041124150158799e-16,-1.387778780781446e-17
57,3,0.9999999999999998,1.8041124150158799e-16,-1.387778780781446e-17
58,3,0.9999999999999998,1.8041124150158799e-16,-1.387778780781446e-17
59,3,0.9999999999999998,1.8041124150158799e-16,-1.387778780781446e-17
60,3,0.9999999999999998,1.8041124150158799e-16,-1.387778780781446e-17
61,3,0.9999999999999998,1.8041124150158799e-16,-1.387778780781446e-17
62,3,0.9999999999999998,1.8041124150158799e-16,-1.387778780781446e-17
63,3,0.9999999999999998,1.8041124150158799e-16,-1.387778780781446e-17
64,3,0.9999999999999998,1.8041124150158799e-16,-1.387778780781446e-17
65,3,0.9999999999999998,1.8041124150158799e-16,-1.387778780781446e-17
66,3,0.9999999999999998,1.8041124150158799e-16,-1.387778780781446e-17
67,3,0.9999999999999998,1.8041124150158799e-16,-1.387778780781446e-17
68,3,0.9999999999999998,1.8041124150158799e-16,-1.387778780781446e-17
69,3,0.9999999999999998,1.8041124150158799e-16,-1.387778780781446e-17
70,3,0.9999999999999998,1.8041124150158799e-16,-1.387778780781446e-17
71,3,0.9999999999999998,1.8041124150158799e-16,-1.387778780781446e-17
72,3,0.9999999999999998,1.8041124150158799e-16,-1.387778780781446e-17
73,3,0.9999999999999998,1.8041124150158799e-16,-1.387778780781446e-17
74,3,0.9999999999999998,1.8041124150158799e-16,-1.387778780781446e-17
75,3,0.9999999999999998,1.8041124150158799e-16,-1.387778780781446e-17
76,3,0.9999999999999998,1.8041124150158799e-16,-1.387778780781446e-17
77,3,0.9999999999999998,1.8041124150158799e-16,-1.387778780781446e-17
78,3,0.9999999999999998,1.8041124150158799e-16,-1.387778780781446e-17
79,3,0.9999999999999998,1.8041124150158799e-16,-1.387778780781446e-17
80,3,0.9999999999999998,1.8041124150158799e-16,-1.387778780781446e-17
81,3,0.9999999999999998,1.8041124150158799e-16,-1.387778780781446e-17
82,3,0.9999999999999998,1.8041124150158799e-16,-1.387778780781446e-17
83,3,0.9999999999999998,1.8041124150158799e-16,-1.387778780781446e-17