TITLE="BGK Re = 100.0"
VARIABLES = X,Y,Rho,U,V
ZONE
I = 201	J = 101
F=POINT
1,1,1.3381368063463464,0.20658655681092675,-0.19179628901046375
2,1,1.148288991578949,-0.06313040266116134,0.04392127556104023
3,1,1.2008044627446495,0.07800002268947948,-0.019398108494557142
4,1,1.238133239969566,0.07600170101559321,-0.015145152533212091
5,1,1.1314465942161032,0.06610501216933413,-0.004706914896421393
6,1,1.0437096582388468,0.02848200678120479,-0.008875549436394868
7,1,1.0136922799427601,0.009512799631281899,-0.0020167682495426816
8,1,1.0013482628719357,0.001489559264262907,-0.0014895036427494974
9,1,1.0001830145795845,0.00018298109137795468,0.0002799853996743189
10,1,0.9999999999999991,1.595945597898664e-16,2.775557561562894e-17
11,1,0.9999999999999991,1.595945597898664e-16,2.775557561562894e-17
12,1,0.9999999999999991,1.595945597898664e-16,2.775557561562894e-17
13,1,0.9999999999999991,1.595945597898664e-16,2.775557561562894e-17
14,1,0.9999999999999991,1.595945597898664e-16,2.775557561562894e-17
15,1,0.9999999999999991,1.595945597898664e-16,2.775557561562894e-17
16,1,0.9999999999999991,1.595945597898664e-16,2.775557561562894e-17
17,1,0.9999999999999991,1.595945597898664e-16,2.775557561562894e-17
18,1,0.9999999999999991,1.595945597898664e-16,2.775557561562894e-17
19,1,0.9999999999999991,1.595945597898664e-16,2.775557561562894e-17
20,1,0.9999999999999991,1.595945597898664e-16,2.775557561562894e-17
21,1,0.9999999999999991,1.595945597898664e-16,2.775557561562894e-17
22,1,0.9999999999999991,1.595945597898664e-16,2.775557561562894e-17
23,1,0.9999999999999991,1.595945597898664e-16,2.775557561562894e-17
24,1,0.9999999999999991,1.595945597898664e-16,2.775557561562894e-17
25,1,0.9999999999999991,1.595945597898664e-16,2.775557561562894e-17
26,1,0.9999999999999991,1.595945597898664e-16,2.775557561562894e-17
27,1,0.9999999999999991,1.595945597898664e-16,2.775557561562894e-17
28,1,0.9999999999999991,1.595945597898664e-16,2.775557561562894e-17
29,1,0.9999999999999991,1.595945597898664e-16,2.775557561562894e-17
30,1,0.9999999999999991,1.595945597898664e-16,2.775557561562894e-17
31,1,0.9999999999999991,1.595945597898664e-16,2.775557561562894e-17
32,1,0.9999999999999991,1.595945597898664e-16,2.775557561562894e-17
33,1,0.9999999999999991,1.595945597898664e-16,2.775557561562894e-17
34,1,0.9999999999999991,1.595945597898664e-16,2.775557561562894e-17
35,1,0.9999999999999991,1.595945597898664e-16,2.775557561562894e-17
36,1,0.9999999999999991,1.595945597898664e-16,2.775557561562894e-17
37,1,0.9999999999999991,1.595945597898664e-16,2.775557561562894e-17
38,1,0.9999999999999991,1.595945597898664e-16,2.775557561562894e-17
39,1,0.9999999999999991,1.595945597898664e-16,2.775557561562894e-17
40,1,0.9999999999999991,1.595945597898664e-16,2.775557561562894e-17
41,1,0.9999999999999991,1.595945597898664e-16,2.775557561562894e-17
42,1,0.9999999999999991,1.595945597898664e-16,2.775557561562894e-17
43,1,0.9999999999999991,1.595945597898664e-16,2.775557561562894e-17
44,1,0.9999999999999991,1.595945597898664e-16,2.775557561562894e-17
45,1,0.9999999999999991,1.595945597898664e-16,2.775557561562894e-17
46,1,0.9999999999999991,1.595945597898664e-16,2.775557561562894e-17
47,1,0.9999999999999991,1.595945597898664e-16,2.775557561562894e-17
48,1,0.9999999999999991,1.595945597898664e-16,2.775557561562894e-17
49,1,0.9999999999999991,1.595945597898664e-16,2.775557561562894e-17
50,1,0.9999999999999991,1.595945597898664e-16,2.775557561562894e-17
51,1,0.9999999999999991,1.595945597898664e-16,2.775557561562894e-17
52,1,0.9999999999999991,1.595945597898664e-16,2.775557561562894e-17
53,1,0.9999999999999991,1.595945597898664e-16,2.775557561562894e-17
54,1,0.9999999999999991,1.595945597898664e-16,2.775557561562894e-17
55,1,0.9999999999999991,1.595945597898664e-16,2.775557561562894e-17
56,1,0.9999999999999991,1.595945597898664e-16,2.775557561562894e-17
57,1,0.9999999999999991,1.595945597898664e-16,2.775557561562894e-17
58,1,0.9999999999999991,1.595945597898664e-16,2.775557561562894e-17
59,1,0.9999999999999991,1.595945597898664e-16,2.775557561562894e-17
60,1,0.9999999999999991,1.595945597898664e-16,2.775557561562894e-17
61,1,0.9999999999999991,1.595945597898664e-16,2.775557561562894e-17
62,1,0.9999999999999991,1.595945597898664e-16,2.775557561562894e-17
63,1,0.9999999999999991,1.595945597898664e-16,2.775557561562894e-17
64,1,0.9999999999999991,1.595945597898664e-16,2.775557561562894e-17
65,1,0.9999999999999991,1.595945597898664e-16,2.775557561562894e-17
66,1,0.9999999999999991,1.595945597898664e-16,2.775557561562894e-17
67,1,0.9999999999999991,1.595945597898664e-16,2.775557561562894e-17
68,1,0.9999999999999991,1.595945597898664e-16,2.775557561562894e-17
69,1,0.9999999999999991,1.595945597898664e-16,2.775557561562894e-17
70,1,0.9999999999999991,1.595945597898664e-16,2.775557561562894e-17
71,1,0.9999999999999991,1.595945597898664e-16,2.775557561562894e-17
72,1,0.9999999999999991,1.595945597898664e-16,2.775557561562894e-17
73,1,0.9999999999999991,1.595945597898664e-16,2.775557561562894e-17
74,1,0.9999999999999991,1.595945597898664e-16,2.775557561562894e-17
75,1,0.9999999999999991,1.595945597898664e-16,2.775557561562894e-17
76,1,0.9999999999999991,1.595945597898664e-16,2.775557561562894e-17
77,1,0.9999999999999991,1.595945597898664e-16,2.775557561562894e-17
78,1,0.9999999999999991,1.595945597898664e-16,2.775557561562894e-17
79,1,0.9999999999999991,1.595945597898664e-16,2.775557561562894e-17
80,1,0.9999999999999991,1.595945597898664e-16,2.775557561562894e-17
81,1,0.9999999999999991,1.595945597898664e-16,2.775557561562894e-17
82,1,0.9999999999999991,1.595945597898664e-16,2.775557561562894e-17
83,1,0.9999999999999991,1.595945597898664e-16,2.775557561562894e-17
84,1,0.9999999999999991,1.595945597898664e-16,2.775557561562894e-17
85,1,0.9999999999999991,1.595945597898664e-16,2.775557561562894e-17
86,1,0.9999999999999991,1.595945597898664e-16,2.775557561562894e-17
87,1,0.9999999999999991,1.595945597898664e-16,2.775557561562894e-17
88,1,0.9999999999999991,1.595945597898664e-16,2.775557561562894e-17
89,1,0.9999999999999991,1.595945597898664e-16,2.775557561562894e-17
90,1,0.9999999999999991,1.595945597898664e-16,2.775557561562894e-17
91,1,0.9999999999999991,1.595945597898664e-16,2.775557561562894e-17
92,1,0.9999999999999991,1.595945597898664e-16,2.775557561562894e-17
93,1,0.9999999999999991,1.595945597898664e-16,2.775557561562894e-17
94,1,0.9999999999999991,1.595945597898664e-16,2.775557561562894e-17
95,1,0.9999999999999991,1.595945597898664e-16,2.775557561562894e-17
96,1,0.9999999999999991,1.595945597898664e-16,2.775557561562894e-17
97,1,0.9999999999999991,1.595945597898664e-16,2.775557561562894e-17
98,1,0.9999999999999991,1.595945597898664e-16,2.775557561562894e-17
99,1,0.9999999999999991,1.595945597898664e-16,2.775557561562894e-17
100,1,0.9999999999999991,1.595945597898664e-16,2.775557561562894e-17
101,1,0.9999999999999991,1.595945597898664e-16,2.775557561562894e-17
102,1,0.9999999999999991,1.595945597898664e-16,2.775557561562894e-17
103,1,0.9999999999999991,1.595945597898664e-16,2.775557561562894e-17
104,1,0.9999999999999991,1.595945597898664e-16,2.775557561562894e-17
105,1,0.9999999999999991,1.595945597898664e-16,2.775557561562894e-17
106,1,0.9999999999999991,1.595945597898664e-16,2.775557561562894e-17
107,1,0.9999999999999991,1.595945597898664e-16,2.775557561562894e-17
108,1,0.9999999999999991,1.595945597898664e-16,2.775557561562894e-17
109,1,0.9999999999999991,1.595945597898664e-16,2.775557561562894e-17
110,1,0.9999999999999991,1.595945597898664e-16,2.775557561562894e-17
111,1,0.9999999999999991,1.595945597898664e-16,2.775557561562894e-17
112,1,0.9999999999999991,1.595945597898664e-16,2.775557561562894e-17
113,1,0.9999999999999991,1.595945597898664e-16,2.775557561562894e-17
114,1,0.9999999999999991,1.595945597898664e-16,2.775557561562894e-17
115,1,0.9999999999999991,1.595945597898664e-16,2.775557561562894e-17
116,1,0.9999999999999991,1.595945597898664e-16,2.775557561562894e-17
117,1,0.9999999999999991,1.595945597898664e-16,2.775557561562894e-17
118,1,0.9999999999999991,1.595945597898664e-16,2.775557561562894e-17
119,1,0.9999999999999991,1.595945597898664e-16,2.775557561562894e-17
120,1,0.9999999999999991,1.595945597898664e-16,2.775557561562894e-17
121,1,0.9999999999999991,1.595945597898664e-16,2.775557561562894e-17
122,1,0.9999999999999991,1.595945597898664e-16,2.775557561562894e-17
123,1,0.9999999999999991,1.595945597898664e-16,2.775557561562894e-17
124,1,0.9999999999999991,1.595945597898664e-16,2.775557561562894e-17
125,1,0.9999999999999991,1.595945597898664e-16,2.775557561562894e-17
126,1,0.9999999999999991,1.595945597898664e-16,2.775557561562894e-17
127,1,0.9999999999999991,1.595945597898664e-16,2.775557561562894e-17
128,1,0.9999999999999991,1.595945597898664e-16,2.775557561562894e-17
129,1,0.9999999999999991,1.595945597898664e-16,2.775557561562894e-17
130,1,0.9999999999999991,1.595945597898664e-16,2.775557561562894e-17
131,1,0.9999999999999991,1.595945597898664e-16,2.775557561562894e-17
132,1,0.9999999999999991,1.595945597898664e-16,2.775557561562894e-17
133,1,0.9999999999999991,1.595945597898664e-16,2.775557561562894e-17
134,1,0.9999999999999991,1.595945597898664e-16,2.775557561562894e-17
135,1,0.9999999999999991,1.595945597898664e-16,2.775557561562894e-17
136,1,0.9999999999999991,1.595945597898664e-16,2.775557561562894e-17
137,1,0.9999999999999991,1.595945597898664e-16,2.775557561562894e-17
138,1,0.9999999999999991,1.595945597898664e-16,2.775557561562894e-17
139,1,0.9999999999999991,1.595945597898664e-16,2.775557561562894e-17
140,1,0.9999999999999991,1.595945597898664e-16,2.775557561562894e-17
141,1,0.9999999999999991,1.595945597898664e-16,2.775557561562894e-17
142,1,0.9999999999999991,1.595945597898664e-16,2.775557561562894e-17
143,1,0.9999999999999991,1.595945597898664e-16,2.775557561562894e-17
144,1,0.9999999999999991,1.595945597898664e-16,2.775557561562894e-17
145,1,0.9999999999999991,1.595945597898664e-16,2.775557561562894e-17
146,1,0.9999999999999991,1.595945597898664e-16,2.775557561562894e-17
147,1,0.9999999999999991,1.595945597898664e-16,2.775557561562894e-17
148,1,0.9999999999999991,1.595945597898664e-16,2.775557561562894e-17
149,1,0.9999999999999991,1.595945597898664e-16,2.775557561562894e-17
150,1,0.9999999999999991,1.595945597898664e-16,2.775557561562894e-17
151,1,0.9999999999999991,1.595945597898664e-16,2.775557561562894e-17
152,1,0.9999999999999991,1.595945597898664e-16,2.775557561562894e-17
153,1,0.9999999999999991,1.595945597898664e-16,2.775557561562894e-17
154,1,0.9999999999999991,1.595945597898664e-16,2.775557561562894e-17
155,1,0.9999999999999991,1.595945597898664e-16,2.775557561562894e-17
156,1,0.9999999999999991,1.595945597898664e-16,2.775557561562894e-17
157,1,0.9999999999999991,1.595945597898664e-16,2.775557561562894e-17
158,1,0.9999999999999991,1.595945597898664e-16,2.775557561562894e-17
159,1,0.9999999999999991,1.595945597898664e-16,2.775557561562894e-17
160,1,0.9999999999999991,1.595945597898664e-16,2.775557561562894e-17
161,1,0.9999999999999991,1.595945597898664e-16,2.775557561562894e-17
162,1,0.9999999999999991,1.595945597898664e-16,2.775557561562894e-17
163,1,0.9999999999999991,1.595945597898664e-16,2.775557561562894e-17
164,1,0.9999999999999991,1.595945597898664e-16,2.775557561562894e-17
165,1,0.9999999999999991,1.595945597898664e-16,2.775557561562894e-17
166,1,0.9999999999999991,1.595945597898664e-16,2.775557561562894e-17
167,1,0.9999999999999991,1.595945597898664e-16,2.775557561562894e-17
168,1,0.9999999999999991,1.595945597898664e-16,2.775557561562894e-17
169,1,0.9999999999999991,1.595945597898664e-16,2.775557561562894e-17
170,1,0.9999999999999991,1.595945597898664e-16,2.775557561562894e-17
171,1,0.9999999999999991,1.595945597898664e-16,2.775557561562894e-17
172,1,0.9999999999999991,1.595945597898664e-16,2.775557561562894e-17
173,1,0.9999999999999991,1.595945597898664e-16,2.775557561562894e-17
174,1,0.9999999999999991,1.595945597898664e-16,2.775557561562894e-17
175,1,0.9999999999999991,1.595945597898664e-16,2.775557561562894e-17
176,1,0.9999999999999991,1.595945597898664e-16,2.775557561562894e-17
177,1,0.9999999999999991,1.595945597898664e-16,2.775557561562894e-17
178,1,0.9999999999999991,1.595945597898664e-16,2.775557561562894e-17
179,1,0.9999999999999991,1.595945597898664e-16,2.775557561562894e-17
180,1,0.9999999999999991,1.595945597898664e-16,2.775557561562894e-17
181,1,0.9999999999999991,1.595945597898664e-16,2.775557561562894e-17
182,1,0.9999999999999991,1.595945597898664e-16,2.775557561562894e-17
183,1,0.9999999999999991,1.595945597898664e-16,2.775557561562894e-17
184,1,0.9999999999999991,1.595945597898664e-16,2.775557561562894e-17
185,1,0.9999999999999991,1.595945597898664e-16,2.775557561562894e-17
186,1,0.9999999999999991,1.595945597898664e-16,2.775557561562894e-17
187,1,0.9999999999999991,1.595945597898664e-16,2.775557561562894e-17
188,1,0.9999999999999991,1.595945597898664e-16,2.775557561562894e-17
189,1,0.9999999999999991,1.595945597898664e-16,2.775557561562894e-17
190,1,0.9999999999999991,1.595945597898664e-16,2.775557561562894e-17
191,1,0.9999999999999991,1.595945597898664e-16,2.775557561562894e-17
192,1,0.9999999999999991,1.595945597898664e-16,2.775557561562894e-17
193,1,0.9998454750786455,0.00015454880299543022,-0.0003388120201780715
194,1,0.9992618177389032,0.0009765554809537467,0.0010969278015166709
195,1,0.9922538479105547,0.005310249184799062,0.0008782306935316132
196,1,0.982979067878536,0.012971383855986687,0.00348316184095133
197,1,0.9564952528278614,0.02795242361246741,0.0021637294154725826
198,1,0.8675343180902215,0.06067231033366569,0.009881446543887085
199,1,0.813437530490518,0.1085947069917693,0.025192825428397975
200,1,0.8585922343222161,-0.01726927119296149,-0.09245131752659239
201,1,0.7478699369159544,0.3218571173479884,0.3624518565191988
1,2,1.1820801667247056,0.1184457975740541,0.32778881560853246
2,2,1.1869370596943982,0.10766611331016969,0.002640103944446175
3,2,1.1835054972342633,0.1438130260147894,-0.014436782250629191
4,2,1.1830514621275614,0.10151867174322496,-0.03136460177300423
5,2,1.172581988323844,0.09293311315666691,-0.002671336256335184
6,2,1.0751963018902289,0.04851185879281731,-0.0031117179557213002
7,2,1.0150040427390281,0.010711664038541166,0.003951355257105405
8,2,1.0003920964177815,0.0005222626833888259,7.747223872893859e-5
9,2,1.0000191636520344,1.9163284796497176e-5,0.0003375958623903168
10,2,0.9999999999999994,2.7061686225238205e-16,-8.326672684688679e-17
11,2,0.9999999999999994,2.7061686225238205e-16,-8.326672684688679e-17
12,2,0.9999999999999994,2.7061686225238205e-16,-8.326672684688679e-17
13,2,0.9999999999999994,2.7061686225238205e-16,-8.326672684688679e-17
14,2,0.9999999999999994,2.7061686225238205e-16,-8.326672684688679e-17
15,2,0.9999999999999994,2.7061686225238205e-16,-8.326672684688679e-17
16,2,0.9999999999999994,2.7061686225238205e-16,-8.326672684688679e-17
17,2,0.9999999999999994,2.7061686225238205e-16,-8.326672684688679e-17
18,2,0.9999999999999994,2.7061686225238205e-16,-8.326672684688679e-17
19,2,0.9999999999999994,2.7061686225238205e-16,-8.326672684688679e-17
20,2,0.9999999999999994,2.7061686225238205e-16,-8.326672684688679e-17
21,2,0.9999999999999994,2.7061686225238205e-16,-8.326672684688679e-17
22,2,0.9999999999999994,2.7061686225238205e-16,-8.326672684688679e-17
23,2,0.9999999999999994,2.7061686225238205e-16,-8.326672684688679e-17
24,2,0.9999999999999994,2.7061686225238205e-16,-8.326672684688679e-17
25,2,0.9999999999999994,2.7061686225238205e-16,-8.326672684688679e-17
26,2,0.9999999999999994,2.7061686225238205e-16,-8.326672684688679e-17
27,2,0.9999999999999994,2.7061686225238205e-16,-8.326672684688679e-17
28,2,0.9999999999999994,2.7061686225238205e-16,-8.326672684688679e-17
29,2,0.9999999999999994,2.7061686225238205e-16,-8.326672684688679e-17
30,2,0.9999999999999994,2.7061686225238205e-16,-8.326672684688679e-17
31,2,0.9999999999999994,2.7061686225238205e-16,-8.326672684688679e-17
32,2,0.9999999999999994,2.7061686225238205e-16,-8.326672684688679e-17
33,2,0.9999999999999994,2.7061686225238205e-16,-8.326672684688679e-17
34,2,0.9999999999999994,2.7061686225238205e-16,-8.326672684688679e-17
35,2,0.9999999999999994,2.7061686225238205e-16,-8.326672684688679e-17
36,2,0.9999999999999994,2.7061686225238205e-16,-8.326672684688679e-17
37,2,0.9999999999999994,2.7061686225238205e-16,-8.326672684688679e-17
38,2,0.9999999999999994,2.7061686225238205e-16,-8.326672684688679e-17
39,2,0.9999999999999994,2.7061686225238205e-16,-8.326672684688679e-17
40,2,0.9999999999999994,2.7061686225238205e-16,-8.326672684688679e-17
41,2,0.9999999999999994,2.7061686225238205e-16,-8.326672684688679e-17
42,2,0.9999999999999994,2.7061686225238205e-16,-8.326672684688679e-17
43,2,0.9999999999999994,2.7061686225238205e-16,-8.326672684688679e-17
44,2,0.9999999999999994,2.7061686225238205e-16,-8.326672684688679e-17
45,2,0.9999999999999994,2.7061686225238205e-16,-8.326672684688679e-17
46,2,0.9999999999999994,2.7061686225238205e-16,-8.326672684688679e-17
47,2,0.9999999999999994,2.7061686225238205e-16,-8.326672684688679e-17
48,2,0.9999999999999994,2.7061686225238205e-16,-8.326672684688679e-17
49,2,0.9999999999999994,2.7061686225238205e-16,-8.326672684688679e-17
50,2,0.9999999999999994,2.7061686225238205e-16,-8.326672684688679e-17
51,2,0.9999999999999994,2.7061686225238205e-16,-8.326672684688679e-17
52,2,0.9999999999999994,2.7061686225238205e-16,-8.326672684688679e-17
53,2,0.9999999999999994,2.7061686225238205e-16,-8.326672684688679e-17
54,2,0.9999999999999994,2.7061686225238205e-16,-8.326672684688679e-17
55,2,0.9999999999999994,2.7061686225238205e-16,-8.326672684688679e-17
56,2,0.9999999999999994,2.7061686225238205e-16,-8.326672684688679e-17
57,2,0.9999999999999994,2.7061686225238205e-16,-8.326672684688679e-17
58,2,0.9999999999999994,2.7061686225238205e-16,-8.326672684688679e-17
59,2,0.9999999999999994,2.7061686225238205e-16,-8.326672684688679e-17
60,2,0.9999999999999994,2.7061686225238205e-16,-8.326672684688679e-17
61,2,0.9999999999999994,2.7061686225238205e-16,-8.326672684688679e-17
62,2,0.9999999999999994,2.7061686225238205e-16,-8.326672684688679e-17
63,2,0.9999999999999994,2.7061686225238205e-16,-8.326672684688679e-17
64,2,0.9999999999999994,2.7061686225238205e-16,-8.326672684688679e-17
65,2,0.9999999999999994,2.7061686225238205e-16,-8.326672684688679e-17
66,2,0.9999999999999994,2.7061686225238205e-16,-8.326672684688679e-17
67,2,0.9999999999999994,2.7061686225238205e-16,-8.326672684688679e-17
68,2,0.9999999999999994,2.7061686225238205e-16,-8.326672684688679e-17
69,2,0.9999999999999994,2.7061686225238205e-16,-8.326672684688679e-17
70,2,0.9999999999999994,2.7061686225238205e-16,-8.326672684688679e-17
71,2,0.9999999999999994,2.7061686225238205e-16,-8.326672684688679e-17
72,2,0.9999999999999994,2.7061686225238205e-16,-8.326672684688679e-17
73,2,0.9999999999999994,2.7061686225238205e-16,-8.326672684688679e-17
74,2,0.9999999999999994,2.7061686225238205e-16,-8.326672684688679e-17
75,2,0.9999999999999994,2.7061686225238205e-16,-8.326672684688679e-17
76,2,0.9999999999999994,2.7061686225238205e-16,-8.326672684688679e-17
77,2,0.9999999999999994,2.7061686225238205e-16,-8.326672684688679e-17
78,2,0.9999999999999994,2.7061686225238205e-16,-8.326672684688679e-17
79,2,0.9999999999999994,2.7061686225238205e-16,-8.326672684688679e-17
80,2,0.9999999999999994,2.7061686225238205e-16,-8.326672684688679e-17
81,2,0.9999999999999994,2.7061686225238205e-16,-8.326672684688679e-17
82,2,0.9999999999999994,2.7061686225238205e-16,-8.326672684688679e-17
83,2,0.9999999999999994,2.7061686225238205e-16,-8.326672684688679e-17
84,2,0.9999999999999994,2.7061686225238205e-16,-8.326672684688679e-17
85,2,0.9999999999999994,2.7061686225238205e-16,-8.326672684688679e-17
86,2,0.9999999999999994,2.7061686225238205e-16,-8.326672684688679e-17
87,2,0.9999999999999994,2.7061686225238205e-16,-8.326672684688679e-17
88,2,0.9999999999999994,2.7061686225238205e-16,-8.326672684688679e-17
89,2,0.9999999999999994,2.7061686225238205e-16,-8.326672684688679e-17
90,2,0.9999999999999994,2.7061686225238205e-16,-8.326672684688679e-17
91,2,0.9999999999999994,2.7061686225238205e-16,-8.326672684688679e-17
92,2,0.9999999999999994,2.7061686225238205e-16,-8.326672684688679e-17
93,2,0.9999999999999994,2.7061686225238205e-16,-8.326672684688679e-17
94,2,0.9999999999999994,2.7061686225238205e-16,-8.326672684688679e-17
95,2,0.9999999999999994,2.7061686225238205e-16,-8.326672684688679e-17
96,2,0.9999999999999994,2.7061686225238205e-16,-8.326672684688679e-17
97,2,0.9999999999999994,2.7061686225238205e-16,-8.326672684688679e-17
98,2,0.9999999999999994,2.7061686225238205e-16,-8.326672684688679e-17
99,2,0.9999999999999994,2.7061686225238205e-16,-8.326672684688679e-17
100,2,0.9999999999999994,2.7061686225238205e-16,-8.326672684688679e-17
101,2,0.9999999999999994,2.7061686225238205e-16,-8.326672684688679e-17
102,2,0.9999999999999994,2.7061686225238205e-16,-8.326672684688679e-17
103,2,0.9999999999999994,2.7061686225238205e-16,-8.326672684688679e-17
104,2,0.9999999999999994,2.7061686225238205e-16,-8.326672684688679e-17
105,2,0.9999999999999994,2.7061686225238205e-16,-8.326672684688679e-17
106,2,0.9999999999999994,2.7061686225238205e-16,-8.326672684688679e-17
107,2,0.9999999999999994,2.7061686225238205e-16,-8.326672684688679e-17
108,2,0.9999999999999994,2.7061686225238205e-16,-8.326672684688679e-17
109,2,0.9999999999999994,2.7061686225238205e-16,-8.326672684688679e-17
110,2,0.9999999999999994,2.7061686225238205e-16,-8.326672684688679e-17
111,2,0.9999999999999994,2.7061686225238205e-16,-8.326672684688679e-17
112,2,0.9999999999999994,2.7061686225238205e-16,-8.326672684688679e-17
113,2,0.9999999999999994,2.7061686225238205e-16,-8.326672684688679e-17
114,2,0.9999999999999994,2.7061686225238205e-16,-8.326672684688679e-17
115,2,0.9999999999999994,2.7061686225238205e-16,-8.326672684688679e-17
116,2,0.9999999999999994,2.7061686225238205e-16,-8.326672684688679e-17
117,2,0.9999999999999994,2.7061686225238205e-16,-8.326672684688679e-17
118,2,0.9999999999999994,2.7061686225238205e-16,-8.326672684688679e-17
119,2,0.9999999999999994,2.7061686225238205e-16,-8.326672684688679e-17
120,2,0.9999999999999994,2.7061686225238205e-16,-8.326672684688679e-17
121,2,0.9999999999999994,2.7061686225238205e-16,-8.326672684688679e-17
122,2,0.9999999999999994,2.7061686225238205e-16,-8.326672684688679e-17
123,2,0.9999999999999994,2.7061686225238205e-16,-8.326672684688679e-17
124,2,0.9999999999999994,2.7061686225238205e-16,-8.326672684688679e-17
125,2,0.9999999999999994,2.7061686225238205e-16,-8.326672684688679e-17
126,2,0.9999999999999994,2.7061686225238205e-16,-8.326672684688679e-17
127,2,0.9999999999999994,2.7061686225238205e-16,-8.326672684688679e-17
128,2,0.9999999999999994,2.7061686225238205e-16,-8.326672684688679e-17
129,2,0.9999999999999994,2.7061686225238205e-16,-8.326672684688679e-17
130,2,0.9999999999999994,2.7061686225238205e-16,-8.326672684688679e-17
131,2,0.9999999999999994,2.7061686225238205e-16,-8.326672684688679e-17
132,2,0.9999999999999994,2.7061686225238205e-16,-8.326672684688679e-17
133,2,0.9999999999999994,2.7061686225238205e-16,-8.326672684688679e-17
134,2,0.9999999999999994,2.7061686225238205e-16,-8.326672684688679e-17
135,2,0.9999999999999994,2.7061686225238205e-16,-8.326672684688679e-17
136,2,0.9999999999999994,2.7061686225238205e-16,-8.326672684688679e-17
137,2,0.9999999999999994,2.7061686225238205e-16,-8.326672684688679e-17
138,2,0.9999999999999994,2.7061686225238205e-16,-8.326672684688679e-17
139,2,0.9999999999999994,2.7061686225238205e-16,-8.326672684688679e-17
140,2,0.9999999999999994,2.7061686225238205e-16,-8.326672684688679e-17
141,2,0.9999999999999994,2.7061686225238205e-16,-8.326672684688679e-17
142,2,0.9999999999999994,2.7061686225238205e-16,-8.326672684688679e-17
143,2,0.9999999999999994,2.7061686225238205e-16,-8.326672684688679e-17
144,2,0.9999999999999994,2.7061686225238205e-16,-8.326672684688679e-17
145,2,0.9999999999999994,2.7061686225238205e-16,-8.326672684688679e-17
146,2,0.9999999999999994,2.7061686225238205e-16,-8.326672684688679e-17
147,2,0.9999999999999994,2.7061686225238205e-16,-8.326672684688679e-17
148,2,0.9999999999999994,2.7061686225238205e-16,-8.326672684688679e-17
149,2,0.9999999999999994,2.7061686225238205e-16,-8.326672684688679e-17
150,2,0.9999999999999994,2.7061686225238205e-16,-8.326672684688679e-17
151,2,0.9999999999999994,2.7061686225238205e-16,-8.326672684688679e-17
152,2,0.9999999999999994,2.7061686225238205e-16,-8.326672684688679e-17
153,2,0.9999999999999994,2.7061686225238205e-16,-8.326672684688679e-17
154,2,0.9999999999999994,2.7061686225238205e-16,-8.326672684688679e-17
155,2,0.9999999999999994,2.7061686225238205e-16,-8.326672684688679e-17
156,2,0.9999999999999994,2.7061686225238205e-16,-8.326672684688679e-17
157,2,0.9999999999999994,2.7061686225238205e-16,-8.326672684688679e-17
158,2,0.9999999999999994,2.7061686225238205e-16,-8.326672684688679e-17
159,2,0.9999999999999994,2.7061686225238205e-16,-8.326672684688679e-17
160,2,0.9999999999999994,2.7061686225238205e-16,-8.326672684688679e-17
161,2,0.9999999999999994,2.7061686225238205e-16,-8.326672684688679e-17
162,2,0.9999999999999994,2.7061686225238205e-16,-8.326672684688679e-17
163,2,0.9999999999999994,2.7061686225238205e-16,-8.326672684688679e-17
164,2,0.9999999999999994,2.7061686225238205e-16,-8.326672684688679e-17
165,2,0.9999999999999994,2.7061686225238205e-16,-8.326672684688679e-17
166,2,0.9999999999999994,2.7061686225238205e-16,-8.326672684688679e-17
167,2,0.9999999999999994,2.7061686225238205e-16,-8.326672684688679e-17
168,2,0.9999999999999994,2.7061686225238205e-16,-8.326672684688679e-17
169,2,0.9999999999999994,2.7061686225238205e-16,-8.326672684688679e-17
170,2,0.9999999999999994,2.7061686225238205e-16,-8.326672684688679e-17
171,2,0.9999999999999994,2.7061686225238205e-16,-8.326672684688679e-17
172,2,0.9999999999999994,2.7061686225238205e-16,-8.326672684688679e-17
173,2,0.9999999999999994,2.7061686225238205e-16,-8.326672684688679e-17
174,2,0.9999999999999994,2.7061686225238205e-16,-8.326672684688679e-17
175,2,0.9999999999999994,2.7061686225238205e-16,-8.326672684688679e-17
176,2,0.9999999999999994,2.7061686225238205e-16,-8.326672684688679e-17
177,2,0.9999999999999994,2.7061686225238205e-16,-8.326672684688679e-17
178,2,0.9999999999999994,2.7061686225238205e-16,-8.326672684688679e-17
179,2,0.9999999999999994,2.7061686225238205e-16,-8.326672684688679e-17
180,2,0.9999999999999994,2.7061686225238205e-16,-8.326672684688679e-17
181,2,0.9999999999999994,2.7061686225238205e-16,-8.326672684688679e-17
182,2,0.9999999999999994,2.7061686225238205e-16,-8.326672684688679e-17
183,2,0.9999999999999994,2.7061686225238205e-16,-8.326672684688679e-17
184,2,0.9999999999999994,2.7061686225238205e-16,-8.326672684688679e-17
185,2,0.9999999999999994,2.7061686225238205e-16,-8.326672684688679e-17
186,2,0.9999999999999994,2.7061686225238205e-16,-8.326672684688679e-17
187,2,0.9999999999999994,2.7061686225238205e-16,-8.326672684688679e-17
188,2,0.9999999999999994,2.7061686225238205e-16,-8.326672684688679e-17
189,2,0.9999999999999994,2.7061686225238205e-16,-8.326672684688679e-17
190,2,0.9999999999999994,2.7061686225238205e-16,-8.326672684688679e-17
191,2,0.9999999999999994,2.7061686225238205e-16,-8.326672684688679e-17
192,2,0.9999999999999994,2.7061686225238205e-16,-8.326672684688679e-17
193,2,0.9999918036075013,8.196459679859961e-6,-0.00037359961839367997
194,2,1.0001833541630822,1.2632086397748612e-5,2.5999161011545974e-5
195,2,0.9939168296324714,0.0038525789578140878,-0.0031850902695513927
196,2,0.9691780626183223,0.021467034803193803,0.00231624706408389
197,2,0.9203641315119092,0.051245290681954984,-0.0010588433167003082
198,2,0.8690443068350048,0.08677951586638989,0.011643281525658099
199,2,0.8447511704169328,0.11990922450006086,0.0236876544079278
200,2,0.7847374452550653,0.22011441251693337,0.08787992045801585
201,2,0.802206948525015,0.19493162317054108,-0.5963792511936458
1,3,1.1456074099313207,0.1259226558732936,-0.13568613998139575
2,3,1.2022451457765229,0.1170291793665191,0.03364446966153739
3,3,1.1919338936818125,0.12549869487347323,-0.009355225867950248
4,3,1.2057034908133877,0.09332517716486864,-0.004058961723306596
5,3,1.188459582376829,0.08874583164151345,-0.005052936399592606
6,3,1.0675995415341932,0.03897235076412018,-0.0043131625219164
7,3,1.0056261640964719,0.0043144597236675014,-0.0011989814309943377
8,3,0.9998713398158637,3.750492797218384e-6,-0.0007823391205604386
9,3,1.0001393732909587,0.00013935386875220886,0.00010383624667108132
10,3,0.9999999999999994,1.6653345369377358e-16,5.551115123125786e-17
11,3,0.9999999999999994,1.6653345369377358e-16,5.551115123125786e-17
12,3,0.9999999999999994,1.6653345369377358e-16,5.551115123125786e-17
13,3,0.9999999999999994,1.6653345369377358e-16,5.551115123125786e-17
14,3,0.9999999999999994,1.6653345369377358e-16,5.551115123125786e-17
15,3,0.9999999999999994,1.6653345369377358e-16,5.551115123125786e-17
16,3,0.9999999999999994,1.6653345369377358e-16,5.551115123125786e-17
17,3,0.9999999999999994,1.6653345369377358e-16,5.551115123125786e-17
18,3,0.9999999999999994,1.6653345369377358e-16,5.551115123125786e-17
19,3,0.9999999999999994,1.6653345369377358e-16,5.551115123125786e-17
20,3,0.9999999999999994,1.6653345369377358e-16,5.551115123125786e-17
21,3,0.9999999999999994,1.6653345369377358e-16,5.551115123125786e-17
22,3,0.9999999999999994,1.6653345369377358e-16,5.551115123125786e-17
23,3,0.9999999999999994,1.6653345369377358e-16,5.551115123125786e-17
24,3,0.9999999999999994,1.6653345369377358e-16,5.551115123125786e-17
25,3,0.9999999999999994,1.6653345369377358e-16,5.551115123125786e-17
26,3,0.9999999999999994,1.6653345369377358e-16,5.551115123125786e-17
27,3,0.9999999999999994,1.6653345369377358e-16,5.551115123125786e-17
28,3,0.9999999999999994,1.6653345369377358e-16,5.551115123125786e-17
29,3,0.9999999999999994,1.6653345369377358e-16,5.551115123125786e-17
30,3,0.9999999999999994,1.6653345369377358e-16,5.551115123125786e-17
31,3,0.9999999999999994,1.6653345369377358e-16,5.551115123125786e-17