TITLE="BGK Re = 100.0"
VARIABLES = X,Y,Rho,U,V
ZONE
I = 201	J = 101
F=POINT
1,1,1.204530200594456,0.009611417029853499,0.08593466331061249
2,1,1.1744680562862035,0.09198369378418529,-0.017072053139089043
3,1,1.1595541199816264,0.056295824017046685,-0.017225182512462852
4,1,1.072130150856473,0.04428998033180931,-0.012002970610152413
5,1,1.015076106607657,0.011100483358457468,-0.0006271073840944714
6,1,1.0009518917038382,0.0009509864677096168,-0.0008185517999045112
7,1,0.9999999999999997,1.3877787807814462e-16,1.3877787807814463e-17
8,1,0.9999999999999997,1.3877787807814462e-16,1.3877787807814463e-17
9,1,0.9999999999999997,1.3877787807814462e-16,1.3877787807814463e-17
10,1,0.9999999999999997,1.3877787807814462e-16,1.3877787807814463e-17
11,1,0.9999999999999997,1.3877787807814462e-16,1.3877787807814463e-17
12,1,0.9999999999999997,1.3877787807814462e-16,1.3877787807814463e-17
13,1,0.9999999999999997,1.3877787807814462e-16,1.3877787807814463e-17
14,1,0.9999999999999997,1.3877787807814462e-16,1.3877787807814463e-17
15,1,0.9999999999999997,1.3877787807814462e-16,1.3877787807814463e-17
16,1,0.9999999999999997,1.3877787807814462e-16,1.3877787807814463e-17
17,1,0.9999999999999997,1.3877787807814462e-16,1.3877787807814463e-17
18,1,0.9999999999999997,1.3877787807814462e-16,1.3877787807814463e-17
19,1,0.9999999999999997,1.3877787807814462e-16,1.3877787807814463e-17
20,1,0.9999999999999997,1.3877787807814462e-16,1.3877787807814463e-17
21,1,0.9999999999999997,1.3877787807814462e-16,1.3877787807814463e-17
22,1,0.9999999999999997,1.3877787807814462e-16,1.3877787807814463e-17
23,1,0.9999999999999997,1.3877787807814462e-16,1.3877787807814463e-17
24,1,0.9999999999999997,1.3877787807814462e-16,1.3877787807814463e-17
25,1,0.9999999999999997,1.3877787807814462e-16,1.3877787807814463e-17
26,1,0.9999999999999997,1.3877787807814462e-16,1.3877787807814463e-17
27,1,0.9999999999999997,1.3877787807814462e-16,1.3877787807814463e-17
28,1,0.9999999999999997,1.3877787807814462e-16,1.3877787807814463e-17
29,1,0.9999999999999997,1.3877787807814462e-16,1.3877787807814463e-17
30,1,0.9999999999999997,1.3877787807814462e-16,1.3877787807814463e-17
31,1,0.9999999999999997,1.3877787807814462e-16,1.3877787807814463e-17
32,1,0.9999999999999997,1.3877787807814462e-16,1.3877787807814463e-17
33,1,0.9999999999999997,1.3877787807814462e-16,1.3877787807814463e-17
34,1,0.9999999999999997,1.3877787807814462e-16,1.3877787807814463e-17
35,1,0.9999999999999997,1.3877787807814462e-16,1.3877787807814463e-17
36,1,0.9999999999999997,1.3877787807814462e-16,1.3877787807814463e-17
37,1,0.9999999999999997,1.3877787807814462e-16,1.3877787807814463e-17
38,1,0.9999999999999997,1.3877787807814462e-16,1.3877787807814463e-17
39,1,0.9999999999999997,1.3877787807814462e-16,1.3877787807814463e-17
40,1,0.9999999999999997,1.3877787807814462e-16,1.3877787807814463e-17
41,1,0.9999999999999997,1.3877787807814462e-16,1.3877787807814463e-17
42,1,0.9999999999999997,1.3877787807814462e-16,1.3877787807814463e-17
43,1,0.9999999999999997,1.3877787807814462e-16,1.3877787807814463e-17
44,1,0.9999999999999997,1.3877787807814462e-16,1.3877787807814463e-17
45,1,0.9999999999999997,1.3877787807814462e-16,1.3877787807814463e-17
46,1,0.9999999999999997,1.3877787807814462e-16,1.3877787807814463e-17
47,1,0.9999999999999997,1.3877787807814462e-16,1.3877787807814463e-17
48,1,0.9999999999999997,1.3877787807814462e-16,1.3877787807814463e-17
49,1,0.9999999999999997,1.3877787807814462e-16,1.3877787807814463e-17
50,1,0.9999999999999997,1.3877787807814462e-16,1.3877787807814463e-17
51,1,0.9999999999999997,1.3877787807814462e-16,1.3877787807814463e-17
52,1,0.9999999999999997,1.3877787807814462e-16,1.3877787807814463e-17
53,1,0.9999999999999997,1.3877787807814462e-16,1.3877787807814463e-17
54,1,0.9999999999999997,1.3877787807814462e-16,1.3877787807814463e-17
55,1,0.9999999999999997,1.3877787807814462e-16,1.3877787807814463e-17
56,1,0.9999999999999997,1.3877787807814462e-16,1.3877787807814463e-17
57,1,0.9999999999999997,1.3877787807814462e-16,1.3877787807814463e-17
58,1,0.9999999999999997,1.3877787807814462e-16,1.3877787807814463e-17
59,1,0.9999999999999997,1.3877787807814462e-16,1.3877787807814463e-17
60,1,0.9999999999999997,1.3877787807814462e-16,1.3877787807814463e-17
61,1,0.9999999999999997,1.3877787807814462e-16,1.3877787807814463e-17
62,1,0.9999999999999997,1.3877787807814462e-16,1.3877787807814463e-17
63,1,0.9999999999999997,1.3877787807814462e-16,1.3877787807814463e-17
64,1,0.9999999999999997,1.3877787807814462e-16,1.3877787807814463e-17
65,1,0.9999999999999997,1.3877787807814462e-16,1.3877787807814463e-17
66,1,0.9999999999999997,1.3877787807814462e-16,1.3877787807814463e-17
67,1,0.9999999999999997,1.3877787807814462e-16,1.3877787807814463e-17
68,1,0.9999999999999997,1.3877787807814462e-16,1.3877787807814463e-17
69,1,0.9999999999999997,1.3877787807814462e-16,1.3877787807814463e-17
70,1,0.9999999999999997,1.3877787807814462e-16,1.3877787807814463e-17
71,1,0.9999999999999997,1.3877787807814462e-16,1.3877787807814463e-17
72,1,0.9999999999999997,1.3877787807814462e-16,1.3877787807814463e-17
73,1,0.9999999999999997,1.3877787807814462e-16,1.3877787807814463e-17
74,1,0.9999999999999997,1.3877787807814462e-16,1.3877787807814463e-17
75,1,0.9999999999999997,1.3877787807814462e-16,1.3877787807814463e-17
76,1,0.9999999999999997,1.3877787807814462e-16,1.3877787807814463e-17
77,1,0.9999999999999997,1.3877787807814462e-16,1.3877787807814463e-17
78,1,0.9999999999999997,1.3877787807814462e-16,1.3877787807814463e-17
79,1,0.9999999999999997,1.3877787807814462e-16,1.3877787807814463e-17
80,1,0.9999999999999997,1.3877787807814462e-16,1.3877787807814463e-17
81,1,0.9999999999999997,1.3877787807814462e-16,1.3877787807814463e-17
82,1,0.9999999999999997,1.3877787807814462e-16,1.3877787807814463e-17
83,1,0.9999999999999997,1.3877787807814462e-16,1.3877787807814463e-17
84,1,0.9999999999999997,1.3877787807814462e-16,1.3877787807814463e-17
85,1,0.9999999999999997,1.3877787807814462e-16,1.3877787807814463e-17
86,1,0.9999999999999997,1.3877787807814462e-16,1.3877787807814463e-17
87,1,0.9999999999999997,1.3877787807814462e-16,1.3877787807814463e-17
88,1,0.9999999999999997,1.3877787807814462e-16,1.3877787807814463e-17
89,1,0.9999999999999997,1.3877787807814462e-16,1.3877787807814463e-17
90,1,0.9999999999999997,1.3877787807814462e-16,1.3877787807814463e-17
91,1,0.9999999999999997,1.3877787807814462e-16,1.3877787807814463e-17
92,1,0.9999999999999997,1.3877787807814462e-16,1.3877787807814463e-17
93,1,0.9999999999999997,1.3877787807814462e-16,1.3877787807814463e-17
94,1,0.9999999999999997,1.3877787807814462e-16,1.3877787807814463e-17
95,1,0.9999999999999997,1.3877787807814462e-16,1.3877787807814463e-17
96,1,0.9999999999999997,1.3877787807814462e-16,1.3877787807814463e-17
97,1,0.9999999999999997,1.3877787807814462e-16,1.3877787807814463e-17
98,1,0.9999999999999997,1.3877787807814462e-16,1.3877787807814463e-17
99,1,0.9999999999999997,1.3877787807814462e-16,1.3877787807814463e-17
100,1,0.9999999999999997,1.3877787807814462e-16,1.3877787807814463e-17
101,1,0.9999999999999997,1.3877787807814462e-16,1.3877787807814463e-17
102,1,0.9999999999999997,1.3877787807814462e-16,1.3877787807814463e-17
103,1,0.9999999999999997,1.3877787807814462e-16,1.3877787807814463e-17
104,1,0.9999999999999997,1.3877787807814462e-16,1.3877787807814463e-17
105,1,0.9999999999999997,1.3877787807814462e-16,1.3877787807814463e-17
106,1,0.9999999999999997,1.3877787807814462e-16,1.3877787807814463e-17
107,1,0.9999999999999997,1.3877787807814462e-16,1.3877787807814463e-17
108,1,0.9999999999999997,1.3877787807814462e-16,1.3877787807814463e-17
109,1,0.9999999999999997,1.3877787807814462e-16,1.3877787807814463e-17
110,1,0.9999999999999997,1.3877787807814462e-16,1.3877787807814463e-17
111,1,0.9999999999999997,1.3877787807814462e-16,1.3877787807814463e-17
112,1,0.9999999999999997,1.3877787807814462e-16,1.3877787807814463e-17
113,1,0.9999999999999997,1.3877787807814462e-16,1.3877787807814463e-17
114,1,0.9999999999999997,1.3877787807814462e-16,1.3877787807814463e-17
115,1,0.9999999999999997,1.3877787807814462e-16,1.3877787807814463e-17
116,1,0.9999999999999997,1.3877787807814462e-16,1.3877787807814463e-17
117,1,0.9999999999999997,1.3877787807814462e-16,1.3877787807814463e-17
118,1,0.9999999999999997,1.3877787807814462e-16,1.3877787807814463e-17
119,1,0.9999999999999997,1.3877787807814462e-16,1.3877787807814463e-17
120,1,0.9999999999999997,1.3877787807814462e-16,1.3877787807814463e-17
121,1,0.9999999999999997,1.3877787807814462e-16,1.3877787807814463e-17
122,1,0.9999999999999997,1.3877787807814462e-16,1.3877787807814463e-17
123,1,0.9999999999999997,1.3877787807814462e-16,1.3877787807814463e-17
124,1,0.9999999999999997,1.3877787807814462e-16,1.3877787807814463e-17
125,1,0.9999999999999997,1.3877787807814462e-16,1.3877787807814463e-17
126,1,0.9999999999999997,1.3877787807814462e-16,1.3877787807814463e-17
127,1,0.9999999999999997,1.3877787807814462e-16,1.3877787807814463e-17
128,1,0.9999999999999997,1.3877787807814462e-16,1.3877787807814463e-17
129,1,0.9999999999999997,1.3877787807814462e-16,1.3877787807814463e-17
130,1,0.9999999999999997,1.3877787807814462e-16,1.3877787807814463e-17
131,1,0.9999999999999997,1.3877787807814462e-16,1.3877787807814463e-17
132,1,0.9999999999999997,1.3877787807814462e-16,1.3877787807814463e-17
133,1,0.9999999999999997,1.3877787807814462e-16,1.3877787807814463e-17
134,1,0.9999999999999997,1.3877787807814462e-16,1.3877787807814463e-17
135,1,0.9999999999999997,1.3877787807814462e-16,1.3877787807814463e-17
136,1,0.9999999999999997,1.3877787807814462e-16,1.3877787807814463e-17
137,1,0.9999999999999997,1.3877787807814462e-16,1.3877787807814463e-17
138,1,0.9999999999999997,1.3877787807814462e-16,1.3877787807814463e-17
139,1,0.9999999999999997,1.3877787807814462e-16,1.3877787807814463e-17
140,1,0.9999999999999997,1.3877787807814462e-16,1.3877787807814463e-17
141,1,0.9999999999999997,1.3877787807814462e-16,1.3877787807814463e-17
142,1,0.9999999999999997,1.3877787807814462e-16,1.3877787807814463e-17
143,1,0.9999999999999997,1.3877787807814462e-16,1.3877787807814463e-17
144,1,0.9999999999999997,1.3877787807814462e-16,1.3877787807814463e-17
145,1,0.9999999999999997,1.3877787807814462e-16,1.3877787807814463e-17
146,1,0.9999999999999997,1.3877787807814462e-16,1.3877787807814463e-17
147,1,0.9999999999999997,1.3877787807814462e-16,1.3877787807814463e-17
148,1,0.9999999999999997,1.3877787807814462e-16,1.3877787807814463e-17
149,1,0.9999999999999997,1.3877787807814462e-16,1.3877787807814463e-17
150,1,0.9999999999999997,1.3877787807814462e-16,1.3877787807814463e-17
151,1,0.9999999999999997,1.3877787807814462e-16,1.3877787807814463e-17
152,1,0.9999999999999997,1.3877787807814462e-16,1.3877787807814463e-17
153,1,0.9999999999999997,1.3877787807814462e-16,1.3877787807814463e-17
154,1,0.9999999999999997,1.3877787807814462e-16,1.3877787807814463e-17
155,1,0.9999999999999997,1.3877787807814462e-16,1.3877787807814463e-17
156,1,0.9999999999999997,1.3877787807814462e-16,1.3877787807814463e-17
157,1,0.9999999999999997,1.3877787807814462e-16,1.3877787807814463e-17
158,1,0.9999999999999997,1.3877787807814462e-16,1.3877787807814463e-17
159,1,0.9999999999999997,1.3877787807814462e-16,1.3877787807814463e-17
160,1,0.9999999999999997,1.3877787807814462e-16,1.3877787807814463e-17
161,1,0.9999999999999997,1.3877787807814462e-16,1.3877787807814463e-17
162,1,0.9999999999999997,1.3877787807814462e-16,1.3877787807814463e-17
163,1,0.9999999999999997,1.3877787807814462e-16,1.3877787807814463e-17
164,1,0.9999999999999997,1.3877787807814462e-16,1.3877787807814463e-17
165,1,0.9999999999999997,1.3877787807814462e-16,1.3877787807814463e-17
166,1,0.9999999999999997,1.3877787807814462e-16,1.3877787807814463e-17
167,1,0.9999999999999997,1.3877787807814462e-16,1.3877787807814463e-17
168,1,0.9999999999999997,1.3877787807814462e-16,1.3877787807814463e-17
169,1,0.9999999999999997,1.3877787807814462e-16,1.3877787807814463e-17
170,1,0.9999999999999997,1.3877787807814462e-16,1.3877787807814463e-17
171,1,0.9999999999999997,1.3877787807814462e-16,1.3877787807814463e-17
172,1,0.9999999999999997,1.3877787807814462e-16,1.3877787807814463e-17
173,1,0.9999999999999997,1.3877787807814462e-16,1.3877787807814463e-17
174,1,0.9999999999999997,1.3877787807814462e-16,1.3877787807814463e-17
175,1,0.9999999999999997,1.3877787807814462e-16,1.3877787807814463e-17
176,1,0.9999999999999997,1.3877787807814462e-16,1.3877787807814463e-17
177,1,0.9999999999999997,1.3877787807814462e-16,1.3877787807814463e-17
178,1,0.9999999999999997,1.3877787807814462e-16,1.3877787807814463e-17
179,1,0.9999999999999997,1.3877787807814462e-16,1.3877787807814463e-17
180,1,0.9999999999999997,1.3877787807814462e-16,1.3877787807814463e-17
181,1,0.9999999999999997,1.3877787807814462e-16,1.3877787807814463e-17
182,1,0.9999999999999997,1.3877787807814462e-16,1.3877787807814463e-17
183,1,0.9999999999999997,1.3877787807814462e-16,1.3877787807814463e-17
184,1,0.9999999999999997,1.3877787807814462e-16,1.3877787807814463e-17
185,1,0.9999999999999997,1.3877787807814462e-16,1.3877787807814463e-17
186,1,0.9999999999999997,1.3877787807814462e-16,1.3877787807814463e-17
187,1,0.9999999999999997,1.3877787807814462e-16,1.3877787807814463e-17
188,1,0.9999999999999997,1.3877787807814462e-16,1.3877787807814463e-17
189,1,0.9999999999999997,1.3877787807814462e-16,1.3877787807814463e-17
190,1,0.9999999999999997,1.3877787807814462e-16,1.3877787807814463e-17
191,1,0.9999999999999997,1.3877787807814462e-16,1.3877787807814463e-17
192,1,0.9999999999999997,1.3877787807814462e-16,1.3877787807814463e-17
193,1,0.9999999999999997,1.3877787807814462e-16,1.3877787807814463e-17
194,1,0.9999999999999997,1.3877787807814462e-16,1.3877787807814463e-17
195,1,0.9999999999999997,1.3877787807814462e-16,1.3877787807814463e-17
196,1,0.9993530685688372,0.0006473502223684154,0.0008079167521876278
197,1,0.991972265557109,0.006094846120836988,-0.0005956522955264538
198,1,0.9657140814651282,0.02327687080015808,0.004874955669098736
199,1,0.8994952114465808,0.046024721851561055,0.014151854455513476
200,1,0.8542156507621684,0.05368541407956237,0.02602725684092764
201,1,0.8311979875439776,-0.008437086782599796,-0.08803409576694889
1,2,1.2136204495407525,0.0910137778898366,-0.03896091215145308
2,2,1.1919138427961702,0.15366913641539987,-0.0014906125496106373
3,2,1.181022502987962,0.09374982320921971,-0.02546868672200301
4,2,1.0748769519862371,0.056316904165140104,-0.0016763532302861736
5,2,1.0123534953411746,0.009056340041860761,0.003919501871061924
6,2,1.0009914082835154,0.0009904263666120066,0.00011276892355950988
7,2,0.9999999999999997,2.012279232133097e-16,2.220446049250314e-16
8,2,0.9999999999999997,2.012279232133097e-16,2.220446049250314e-16
9,2,0.9999999999999997,2.012279232133097e-16,2.220446049250314e-16
10,2,0.9999999999999997,2.012279232133097e-16,2.220446049250314e-16
11,2,0.9999999999999997,2.012279232133097e-16,2.220446049250314e-16
12,2,0.9999999999999997,2.012279232133097e-16,2.220446049250314e-16
13,2,0.9999999999999997,2.012279232133097e-16,2.220446049250314e-16
14,2,0.9999999999999997,2.012279232133097e-16,2.220446049250314e-16
15,2,0.9999999999999997,2.012279232133097e-16,2.220446049250314e-16
16,2,0.9999999999999997,2.012279232133097e-16,2.220446049250314e-16
17,2,0.9999999999999997,2.012279232133097e-16,2.220446049250314e-16
18,2,0.9999999999999997,2.012279232133097e-16,2.220446049250314e-16
19,2,0.9999999999999997,2.012279232133097e-16,2.220446049250314e-16
20,2,0.9999999999999997,2.012279232133097e-16,2.220446049250314e-16
21,2,0.9999999999999997,2.012279232133097e-16,2.220446049250314e-16
22,2,0.9999999999999997,2.012279232133097e-16,2.220446049250314e-16
23,2,0.9999999999999997,2.012279232133097e-16,2.220446049250314e-16
24,2,0.9999999999999997,2.012279232133097e-16,2.220446049250314e-16
25,2,0.9999999999999997,2.012279232133097e-16,2.220446049250314e-16
26,2,0.9999999999999997,2.012279232133097e-16,2.220446049250314e-16
27,2,0.9999999999999997,2.012279232133097e-16,2.220446049250314e-16
28,2,0.9999999999999997,2.012279232133097e-16,2.220446049250314e-16
29,2,0.9999999999999997,2.012279232133097e-16,2.220446049250314e-16
30,2,0.9999999999999997,2.012279232133097e-16,2.220446049250314e-16
31,2,0.9999999999999997,2.012279232133097e-16,2.220446049250314e-16
32,2,0.9999999999999997,2.012279232133097e-16,2.220446049250314e-16
33,2,0.9999999999999997,2.012279232133097e-16,2.220446049250314e-16
34,2,0.9999999999999997,2.012279232133097e-16,2.220446049250314e-16
35,2,0.9999999999999997,2.012279232133097e-16,2.220446049250314e-16
36,2,0.9999999999999997,2.012279232133097e-16,2.220446049250314e-16
37,2,0.9999999999999997,2.012279232133097e-16,2.220446049250314e-16
38,2,0.9999999999999997,2.012279232133097e-16,2.220446049250314e-16
39,2,0.9999999999999997,2.012279232133097e-16,2.220446049250314e-16
40,2,0.9999999999999997,2.012279232133097e-16,2.220446049250314e-16
41,2,0.9999999999999997,2.012279232133097e-16,2.220446049250314e-16
42,2,0.9999999999999997,2.012279232133097e-16,2.220446049250314e-16
43,2,0.9999999999999997,2.012279232133097e-16,2.220446049250314e-16
44,2,0.9999999999999997,2.012279232133097e-16,2.220446049250314e-16
45,2,0.9999999999999997,2.012279232133097e-16,2.220446049250314e-16
46,2,0.9999999999999997,2.012279232133097e-16,2.220446049250314e-16
47,2,0.9999999999999997,2.012279232133097e-16,2.220446049250314e-16
48,2,0.9999999999999997,2.012279232133097e-16,2.220446049250314e-16
49,2,0.9999999999999997,2.012279232133097e-16,2.220446049250314e-16
50,2,0.9999999999999997,2.012279232133097e-16,2.220446049250314e-16
51,2,0.9999999999999997,2.012279232133097e-16,2.220446049250314e-16
52,2,0.9999999999999997,2.012279232133097e-16,2.220446049250314e-16
53,2,0.9999999999999997,2.012279232133097e-16,2.220446049250314e-16
54,2,0.9999999999999997,2.012279232133097e-16,2.220446049250314e-16
55,2,0.9999999999999997,2.012279232133097e-16,2.220446049250314e-16
56,2,0.9999999999999997,2.012279232133097e-16,2.220446049250314e-16
57,2,0.9999999999999997,2.012279232133097e-16,2.220446049250314e-16
58,2,0.9999999999999997,2.012279232133097e-16,2.220446049250314e-16
59,2,0.9999999999999997,2.012279232133097e-16,2.220446049250314e-16
60,2,0.9999999999999997,2.012279232133097e-16,2.220446049250314e-16
61,2,0.9999999999999997,2.012279232133097e-16,2.220446049250314e-16
62,2,0.9999999999999997,2.012279232133097e-16,2.220446049250314e-16
63,2,0.9999999999999997,2.012279232133097e-16,2.220446049250314e-16
64,2,0.9999999999999997,2.012279232133097e-16,2.220446049250314e-16
65,2,0.9999999999999997,2.012279232133097e-16,2.220446049250314e-16
66,2,0.9999999999999997,2.012279232133097e-16,2.220446049250314e-16
67,2,0.9999999999999997,2.012279232133097e-16,2.220446049250314e-16
68,2,0.9999999999999997,2.012279232133097e-16,2.220446049250314e-16
69,2,0.9999999999999997,2.012279232133097e-16,2.220446049250314e-16
70,2,0.9999999999999997,2.012279232133097e-16,2.220446049250314e-16
71,2,0.9999999999999997,2.012279232133097e-16,2.220446049250314e-16
72,2,0.9999999999999997,2.012279232133097e-16,2.220446049250314e-16
73,2,0.9999999999999997,2.012279232133097e-16,2.220446049250314e-16
74,2,0.9999999999999997,2.012279232133097e-16,2.220446049250314e-16
75,2,0.9999999999999997,2.012279232133097e-16,2.220446049250314e-16
76,2,0.9999999999999997,2.012279232133097e-16,2.220446049250314e-16
77,2,0.9999999999999997,2.012279232133097e-16,2.220446049250314e-16
78,2,0.9999999999999997,2.012279232133097e-16,2.220446049250314e-16
79,2,0.9999999999999997,2.012279232133097e-16,2.220446049250314e-16
80,2,0.9999999999999997,2.012279232133097e-16,2.220446049250314e-16
81,2,0.9999999999999997,2.012279232133097e-16,2.220446049250314e-16
82,2,0.9999999999999997,2.012279232133097e-16,2.220446049250314e-16
83,2,0.9999999999999997,2.012279232133097e-16,2.220446049250314e-16
84,2,0.9999999999999997,2.012279232133097e-16,2.220446049250314e-16
85,2,0.9999999999999997,2.012279232133097e-16,2.220446049250314e-16
86,2,0.9999999999999997,2.012279232133097e-16,2.220446049250314e-16
87,2,0.9999999999999997,2.012279232133097e-16,2.220446049250314e-16
88,2,0.9999999999999997,2.012279232133097e-16,2.220446049250314e-16
89,2,0.9999999999999997,2.012279232133097e-16,2.220446049250314e-16
90,2,0.9999999999999997,2.012279232133097e-16,2.220446049250314e-16
91,2,0.9999999999999997,2.012279232133097e-16,2.220446049250314e-16
92,2,0.9999999999999997,2.012279232133097e-16,2.220446049250314e-16
93,2,0.9999999999999997,2.012279232133097e-16,2.220446049250314e-16
94,2,0.9999999999999997,2.012279232133097e-16,2.220446049250314e-16
95,2,0.9999999999999997,2.012279232133097e-16,2.220446049250314e-16
96,2,0.9999999999999997,2.012279232133097e-16,2.220446049250314e-16
97,2,0.9999999999999997,2.012279232133097e-16,2.220446049250314e-16
98,2,0.9999999999999997,2.012279232133097e-16,2.220446049250314e-16
99,2,0.9999999999999997,2.012279232133097e-16,2.220446049250314e-16
100,2,0.9999999999999997,2.012279232133097e-16,2.220446049250314e-16
101,2,0.9999999999999997,2.012279232133097e-16,2.220446049250314e-16
102,2,0.9999999999999997,2.012279232133097e-16,2.220446049250314e-16
103,2,0.9999999999999997,2.012279232133097e-16,2.220446049250314e-16
104,2,0.9999999999999997,2.012279232133097e-16,2.220446049250314e-16
105,2,0.9999999999999997,2.012279232133097e-16,2.220446049250314e-16
106,2,0.9999999999999997,2.012279232133097e-16,2.220446049250314e-16
107,2,0.9999999999999997,2.012279232133097e-16,2.220446049250314e-16
108,2,0.9999999999999997,2.012279232133097e-16,2.220446049250314e-16
109,2,0.9999999999999997,2.012279232133097e-16,2.220446049250314e-16
110,2,0.9999999999999997,2.012279232133097e-16,2.220446049250314e-16
111,2,0.9999999999999997,2.012279232133097e-16,2.220446049250314e-16
112,2,0.9999999999999997,2.012279232133097e-16,2.220446049250314e-16
113,2,0.9999999999999997,2.012279232133097e-16,2.220446049250314e-16
114,2,0.9999999999999997,2.012279232133097e-16,2.220446049250314e-16
115,2,0.9999999999999997,2.012279232133097e-16,2.220446049250314e-16
116,2,0.9999999999999997,2.012279232133097e-16,2.220446049250314e-16
117,2,0.9999999999999997,2.012279232133097e-16,2.220446049250314e-16
118,2,0.9999999999999997,2.012279232133097e-16,2.220446049250314e-16
119,2,0.9999999999999997,2.012279232133097e-16,2.220446049250314e-16
120,2,0.9999999999999997,2.012279232133097e-16,2.220446049250314e-16
121,2,0.9999999999999997,2.012279232133097e-16,2.220446049250314e-16
122,2,0.9999999999999997,2.012279232133097e-16,2.220446049250314e-16
123,2,0.9999999999999997,2.012279232133097e-16,2.220446049250314e-16
124,2,0.9999999999999997,2.012279232133097e-16,2.220446049250314e-16
125,2,0.9999999999999997,2.012279232133097e-16,2.220446049250314e-16
126,2,0.9999999999999997,2.012279232133097e-16,2.220446049250314e-16
127,2,0.9999999999999997,2.012279232133097e-16,2.220446049250314e-16
128,2,0.9999999999999997,2.012279232133097e-16,2.220446049250314e-16
129,2,0.9999999999999997,2.012279232133097e-16,2.220446049250314e-16
130,2,0.9999999999999997,2.012279232133097e-16,2.220446049250314e-16
131,2,0.9999999999999997,2.012279232133097e-16,2.220446049250314e-16
132,2,0.9999999999999997,2.012279232133097e-16,2.220446049250314e-16
133,2,0.9999999999999997,2.012279232133097e-16,2.220446049250314e-16
134,2,0.9999999999999997,2.012279232133097e-16,2.220446049250314e-16
135,2,0.9999999999999997,2.012279232133097e-16,2.220446049250314e-16
136,2,0.9999999999999997,2.012279232133097e-16,2.220446049250314e-16
137,2,0.9999999999999997,2.012279232133097e-16,2.220446049250314e-16
138,2,0.9999999999999997,2.012279232133097e-16,2.220446049250314e-16
139,2,0.9999999999999997,2.012279232133097e-16,2.220446049250314e-16
140,2,0.9999999999999997,2.012279232133097e-16,2.220446049250314e-16
141,2,0.9999999999999997,2.012279232133097e-16,2.220446049250314e-16
142,2,0.9999999999999997,2.012279232133097e-16,2.220446049250314e-16
143,2,0.9999999999999997,2.012279232133097e-16,2.220446049250314e-16
144,2,0.9999999999999997,2.012279232133097e-16,2.220446049250314e-16
145,2,0.9999999999999997,2.012279232133097e-16,2.220446049250314e-16
146,2,0.9999999999999997,2.012279232133097e-16,2.220446049250314e-16
147,2,0.9999999999999997,2.012279232133097e-16,2.220446049250314e-16
148,2,0.9999999999999997,2.012279232133097e-16,2.220446049250314e-16
149,2,0.9999999999999997,2.012279232133097e-16,2.220446049250314e-16
150,2,0.9999999999999997,2.012279232133097e-16,2.220446049250314e-16
151,2,0.9999999999999997,2.012279232133097e-16,2.220446049250314e-16
152,2,0.9999999999999997,2.012279232133097e-16,2.220446049250314e-16
153,2,0.9999999999999997,2.012279232133097e-16,2.220446049250314e-16
154,2,0.9999999999999997,2.012279232133097e-16,2.220446049250314e-16
155,2,0.9999999999999997,2.012279232133097e-16,2.220446049250314e-16
156,2,0.9999999999999997,2.012279232133097e-16,2.220446049250314e-16
157,2,0.9999999999999997,2.012279232133097e-16,2.220446049250314e-16
158,2,0.9999999999999997,2.012279232133097e-16,2.220446049250314e-16
159,2,0.9999999999999997,2.012279232133097e-16,2.220446049250314e-16
160,2,0.9999999999999997,2.012279232133097e-16,2.220446049250314e-16
161,2,0.9999999999999997,2.012279232133097e-16,2.220446049250314e-16
162,2,0.9999999999999997,2.012279232133097e-16,2.220446049250314e-16
163,2,0.9999999999999997,2.012279232133097e-16,2.220446049250314e-16
164,2,0.9999999999999997,2.012279232133097e-16,2.220446049250314e-16
165,2,0.9999999999999997,2.012279232133097e-16,2.220446049250314e-16
166,2,0.9999999999999997,2.012279232133097e-16,2.220446049250314e-16
167,2,0.9999999999999997,2.012279232133097e-16,2.220446049250314e-16
168,2,0.9999999999999997,2.012279232133097e-16,2.220446049250314e-16
169,2,0.9999999999999997,2.012279232133097e-16,2.220446049250314e-16
170,2,0.9999999999999997,2.012279232133097e-16,2.220446049250314e-16
171,2,0.9999999999999997,2.012279232133097e-16,2.220446049250314e-16
172,2,0.9999999999999997,2.012279232133097e-16,2.220446049250314e-16
173,2,0.9999999999999997,2.012279232133097e-16,2.220446049250314e-16
174,2,0.9999999999999997,2.012279232133097e-16,2.220446049250314e-16
175,2,0.9999999999999997,2.012279232133097e-16,2.220446049250314e-16
176,2,0.9999999999999997,2.012279232133097e-16,2.220446049250314e-16
177,2,0.9999999999999997,2.012279232133097e-16,2.220446049250314e-16
178,2,0.9999999999999997,2.012279232133097e-16,2.220446049250314e-16
179,2,0.9999999999999997,2.012279232133097e-16,2.220446049250314e-16
180,2,0.9999999999999997,2.012279232133097e-16,2.220446049250314e-16
181,2,0.9999999999999997,2.012279232133097e-16,2.220446049250314e-16
182,2,0.9999999999999997,2.012279232133097e-16,2.220446049250314e-16
183,2,0.9999999999999997,2.012279232133097e-16,2.220446049250314e-16
184,2,0.9999999999999997,2.012279232133097e-16,2.220446049250314e-16
185,2,0.9999999999999997,2.012279232133097e-16,2.220446049250314e-16
186,2,0.9999999999999997,2.012279232133097e-16,2.220446049250314e-16
187,2,0.9999999999999997,2.012279232133097e-16,2.220446049250314e-16
188,2,0.9999999999999997,2.012279232133097e-16,2.220446049250314e-16
189,2,0.9999999999999997,2.012279232133097e-16,2.220446049250314e-16
190,2,0.9999999999999997,2.012279232133097e-16,2.220446049250314e-16
191,2,0.9999999999999997,2.012279232133097e-16,2.220446049250314e-16
192,2,0.9999999999999997,2.012279232133097e-16,2.220446049250314e-16
193,2,0.9999999999999997,2.012279232133097e-16,2.220446049250314e-16
194,2,0.9999999999999997,2.012279232133097e-16,2.220446049250314e-16
195,2,0.9999999999999997,2.012279232133097e-16,2.220446049250314e-16
196,2,0.9998053452575941,0.00019469264025152855,1.0639396024414767e-5
197,2,0.9959932118998884,0.0024750194521911874,-0.0030564834128961847
198,2,0.9675133981974666,0.02744147346061019,-0.0022633630003973436
199,2,0.8886339998131851,0.07257224165300671,0.014810047691550976
200,2,0.852997012155686,0.09623514474949517,0.006436450391456793
201,2,0.8093518608140998,0.06022454538776191,0.07641297577659692
1,3,1.1577580509340013,0.07284998455921937,0.007785723310008927
2,3,1.237831847926398,0.13382250988863373,0.01432327528187575
3,3,1.2023449646349882,0.08610294896500091,-0.012876029016763678
4,3,1.0783005379654234,0.04911861500701461,0.00040234909478702033
5,3,1.0208683380288759,0.013267887155217975,-0.0033708564000886282
6,3,1.0006137910591935,0.0006134145508271155,-0.0008033653432336424
7,3,0.9999999999999998,2.289834988289386e-16,6.93889390390723e-17
8,3,0.9999999999999998,2.289834988289386e-16,6.93889390390723e-17
9,3,0.9999999999999998,2.289834988289386e-16,6.93889390390723e-17
10,3,0.9999999999999998,2.289834988289386e-16,6.93889390390723e-17
11,3,0.9999999999999998,2.289834988289386e-16,6.93889390390723e-17
12,3,0.9999999999999998,2.289834988289386e-16,6.93889390390723e-17
13,3,0.9999999999999998,2.289834988289386e-16,6.93889390390723e-17
14,3,0.9999999999999998,2.289834988289386e-16,6.93889390390723e-17
15,3,0.9999999999999998,2.289834988289386e-16,6.93889390390723e-17
16,3,0.9999999999999998,2.289834988289386e-16,6.93889390390723e-17
17,3,0.9999999999999998,2.289834988289386e-16,6.93889390390723e-17
18,3,0.9999999999999998,2.289834988289386e-16,6.93889390390723e-17
19,3,0.9999999999999998,2.289834988289386e-16,6.93889390390723e-17
20,3,0.9999999999999998,2.289834988289386e-16,6.93889390390723e-17
21,3,0.9999999999999998,2.289834988289386e-16,6.93889390390723e-17
22,3,0.9999999999999998,2.289834988289386e-16,6.93889390390723e-17
23,3,0.9999999999999998,2.289834988289386e-16,6.93889390390723e-17
24,3,0.9999999999999998,2.289834988289386e-16,6.93889390390723e-17
25,3,0.9999999999999998,2.289834988289386e-16,6.93889390390723e-17
26,3,0.9999999999999998,2.289834988289386e-16,6.93889390390723e-17
27,3,0.9999999999999998,2.289834988289386e-16,6.93889390390723e-17
28,3,0.9999999999999998,2.289834988289386e-16,6.93889390390723e-17
29,3,0.9999999999999998,2.289834988289386e-16,6.93889390390723e-17
30,3,0.9999999999999998,2.289834988289386e-16,6.93889390390723e-17
31,3,0.9999999999999998,2.289834988289386e-16,6.93889390390723e-17